   4   4   0   0
  0.1266325E+02  0.3700000E-09  0.3700000E-09  0.3700000E-09  0.5000000E-15
  1.000000000000000E-004
  CAR 
 unknown system                          
     15.79409360     -2.68099850  301      6.53751848      1.00000000
     -2.681  0.0000E+00  0.0000E+00
     -2.619  0.0000E+00  0.0000E+00
     -2.558  0.0000E+00  0.0000E+00
     -2.496  0.0000E+00  0.0000E+00
     -2.435  0.0000E+00  0.0000E+00
     -2.373  0.0000E+00  0.0000E+00
     -2.311  0.0000E+00  0.0000E+00
     -2.250  0.0000E+00  0.0000E+00
     -2.188  0.0000E+00  0.0000E+00
     -2.127  0.4006E-15  0.2467E-16
     -2.065  0.1437E-09  0.8848E-11
     -2.004  0.2638E-05  0.1625E-06
     -1.942  0.2624E-02  0.1618E-03
     -1.880  0.1584E+00  0.9914E-02
     -1.819  0.7252E+00  0.5458E-01
     -1.757  0.3061E+00  0.7342E-01
     -1.696  0.1052E-01  0.7407E-01
     -1.634  0.2307E-04  0.7407E-01
     -1.572  0.2801E-08  0.7407E-01
     -1.511  0.1763E-13  0.7407E-01
     -1.449  0.4947E-10  0.7407E-01
     -1.388  0.1578E-05  0.7407E-01
     -1.326  0.2691E-02  0.7424E-01
     -1.265  0.2706E+00  0.9091E-01
     -1.203  0.1967E+01  0.2120E+00
     -1.141  0.1295E+01  0.2918E+00
     -1.080  0.7266E-01  0.2963E+00
     -1.018  0.2704E-03  0.2963E+00
     -0.957  0.5676E-07  0.2963E+00
     -0.895  0.6270E-12  0.2963E+00
     -0.833  0.6425E-09  0.2963E+00
     -0.772  0.1063E-04  0.2963E+00
     -0.710  0.9545E-02  0.2969E+00
     -0.649  0.5232E+00  0.3291E+00
     -0.587  0.2197E+01  0.4644E+00
     -0.526  0.8518E+00  0.5169E+00
     -0.464  0.2666E-01  0.5185E+00
     -0.402  0.5283E-04  0.5185E+00
     -0.341  0.5780E-08  0.5185E+00
     -0.279  0.9940E-10  0.5185E+00
     -0.218  0.2193E-05  0.5185E+00
     -0.156  0.2909E-02  0.5187E+00
     -0.094  0.2766E+00  0.5357E+00
     -0.033  0.2326E+01  0.6790E+00
      0.029  0.2033E+01  0.8041E+00
      0.090  0.1721E+00  0.8147E+00
      0.152  0.1071E-02  0.8148E+00
      0.213  0.3959E-06  0.8148E+00
      0.275  0.1962E-09  0.8148E+00
      0.337  0.5112E-05  0.8148E+00
      0.398  0.7444E-02  0.8153E+00
      0.460  0.6442E+00  0.8549E+00
      0.521  0.4086E+01  0.1107E+01
      0.583  0.2364E+01  0.1252E+01
      0.645  0.1150E+00  0.1259E+01
      0.706  0.3668E-03  0.1259E+01
      0.768  0.6747E-06  0.1259E+01
      0.829  0.1409E-02  0.1259E+01
      0.891  0.1894E+00  0.1271E+01
      0.952  0.1792E+01  0.1381E+01
      1.014  0.1514E+01  0.1475E+01
      1.076  0.1113E+00  0.1481E+01
      1.137  0.5564E-03  0.1481E+01
      1.199  0.1636E-06  0.1481E+01
      1.260  0.4686E-04  0.1481E+01
      1.322  0.2516E-01  0.1483E+01
      1.384  0.9249E+00  0.1540E+01
      1.445  0.3675E+01  0.1766E+01
      1.507  0.2376E+01  0.1913E+01
      1.568  0.2886E+00  0.1930E+01
      1.630  0.1306E+01  0.2011E+01
      1.691  0.1961E+01  0.2132E+01
      1.753  0.4155E+00  0.2157E+01
      1.815  0.2635E+01  0.2319E+01
      1.876  0.4315E+01  0.2585E+01
      1.938  0.1219E+01  0.2660E+01
      1.999  0.6008E+00  0.2697E+01
      2.061  0.2189E+01  0.2832E+01
      2.123  0.1277E+01  0.2911E+01
      2.184  0.2447E+01  0.3061E+01
      2.246  0.4201E+01  0.3320E+01
      2.307  0.6237E+01  0.3704E+01
      2.369  0.4199E+01  0.3963E+01
      2.430  0.4373E+01  0.4232E+01
      2.492  0.5080E+01  0.4545E+01
      2.554  0.6920E+01  0.4971E+01
      2.615  0.7083E+01  0.5407E+01
      2.677  0.4774E+01  0.5701E+01
      2.738  0.5069E+01  0.6013E+01
      2.800  0.8198E+01  0.6518E+01
      2.862  0.5769E+01  0.6874E+01
      2.923  0.1105E+02  0.7554E+01
      2.985  0.1291E+02  0.8349E+01
      3.046  0.1069E+02  0.9007E+01
      3.108  0.8441E+01  0.9527E+01
      3.169  0.6330E+01  0.9917E+01
      3.231  0.1301E+02  0.1072E+02
      3.293  0.1278E+02  0.1150E+02
      3.354  0.5005E+01  0.1181E+02
      3.416  0.5556E+01  0.1216E+02
      3.477  0.1286E+02  0.1295E+02
      3.539  0.1406E+02  0.1381E+02
      3.601  0.8372E+01  0.1433E+02
      3.662  0.1243E+02  0.1509E+02
      3.724  0.1871E+02  0.1625E+02
      3.785  0.1631E+02  0.1725E+02
      3.847  0.9115E+01  0.1781E+02
      3.908  0.1680E+02  0.1885E+02
      3.970  0.1715E+02  0.1990E+02
      4.032  0.2115E+02  0.2120E+02
      4.093  0.2079E+02  0.2249E+02
      4.155  0.2227E+02  0.2386E+02
      4.216  0.1444E+02  0.2475E+02
      4.278  0.8699E+01  0.2528E+02
      4.340  0.1049E+02  0.2593E+02
      4.401  0.1252E+02  0.2670E+02
      4.463  0.1197E+02  0.2744E+02
      4.524  0.1119E+02  0.2812E+02
      4.586  0.2064E+02  0.2940E+02
      4.647  0.2115E+02  0.3070E+02
      4.709  0.1341E+02  0.3152E+02
      4.771  0.1069E+02  0.3218E+02
      4.832  0.1337E+02  0.3301E+02
      4.894  0.1549E+02  0.3396E+02
      4.955  0.2048E+02  0.3522E+02
      5.017  0.1157E+02  0.3593E+02
      5.079  0.2008E+02  0.3717E+02
      5.140  0.2987E+02  0.3901E+02
      5.202  0.2110E+02  0.4031E+02
      5.263  0.1507E+02  0.4124E+02
      5.325  0.8162E+01  0.4174E+02
      5.386  0.1649E+01  0.4184E+02
      5.448  0.2157E+01  0.4197E+02
      5.510  0.7100E+00  0.4202E+02
      5.571  0.2862E+01  0.4219E+02
      5.633  0.5637E+01  0.4254E+02
      5.694  0.1991E+01  0.4266E+02
      5.756  0.5113E+00  0.4269E+02
      5.818  0.2156E+01  0.4283E+02
      5.879  0.9678E+00  0.4289E+02
      5.941  0.3566E-01  0.4289E+02
      6.002  0.2318E-01  0.4289E+02
      6.064  0.7982E+00  0.4294E+02
      6.125  0.2210E+01  0.4308E+02
      6.187  0.5656E+00  0.4311E+02
      6.249  0.1117E-01  0.4311E+02
      6.310  0.2608E-04  0.4311E+02
      6.372  0.1425E-01  0.4311E+02
      6.433  0.1073E+01  0.4318E+02
      6.495  0.7440E+01  0.4364E+02
      6.557  0.7542E+01  0.4410E+02
      6.618  0.1882E+01  0.4422E+02
      6.680  0.9080E-01  0.4422E+02
      6.741  0.3690E-03  0.4422E+02
      6.803  0.8803E-07  0.4422E+02
      6.864  0.6601E-05  0.4422E+02
      6.926  0.8831E-02  0.4422E+02
      6.988  0.7051E+00  0.4427E+02
      7.049  0.4158E+01  0.4452E+02
      7.111  0.2243E+01  0.4466E+02
      7.172  0.1011E+00  0.4467E+02
      7.234  0.2967E-03  0.4467E+02
      7.296  0.4870E-07  0.4467E+02
      7.357  0.4253E-12  0.4467E+02
      7.419  0.1707E-08  0.4467E+02
      7.480  0.2177E-04  0.4467E+02
      7.542  0.1518E-01  0.4467E+02
      7.603  0.6563E+00  0.4471E+02
      7.665  0.2291E+01  0.4485E+02
      7.727  0.1958E+01  0.4497E+02
      7.788  0.2177E+01  0.4510E+02
      7.850  0.2016E+01  0.4523E+02
      7.911  0.1585E+01  0.4533E+02
      7.973  0.1267E+00  0.4533E+02
      8.035  0.1294E-02  0.4533E+02
      8.096  0.1162E+00  0.4534E+02
      8.158  0.1536E+01  0.4544E+02
      8.219  0.1800E+01  0.4555E+02
      8.281  0.1455E+01  0.4564E+02
      8.342  0.4445E+01  0.4591E+02
      8.404  0.1435E+01  0.4600E+02
      8.466  0.7898E-01  0.4600E+02
      8.527  0.1533E+01  0.4610E+02
      8.589  0.4432E+01  0.4637E+02
      8.650  0.1185E+01  0.4644E+02
      8.712  0.2458E-01  0.4644E+02
      8.774  0.3136E-04  0.4644E+02
      8.835  0.2182E-08  0.4644E+02
      8.897  0.8012E-14  0.4644E+02
      8.958  0.0000E+00  0.4644E+02
      9.020  0.1342E-12  0.4644E+02
      9.081  0.2015E-07  0.4644E+02
      9.143  0.1578E-03  0.4644E+02
      9.205  0.6850E-01  0.4645E+02
      9.266  0.1903E+01  0.4657E+02
      9.328  0.4326E+01  0.4683E+02
      9.389  0.9052E+00  0.4689E+02
      9.451  0.1431E-01  0.4689E+02
      9.513  0.1369E-04  0.4689E+02
      9.574  0.7083E-09  0.4689E+02
      9.636  0.1602E-14  0.4689E+02
      9.697  0.9655E-13  0.4689E+02
      9.759  0.1561E-07  0.4689E+02
      9.820  0.1313E-03  0.4689E+02
      9.882  0.6108E-01  0.4689E+02
      9.944  0.1810E+01  0.4700E+02
     10.005  0.4361E+01  0.4727E+02
     10.067  0.9846E+00  0.4733E+02
     10.128  0.6871E+00  0.4738E+02
     10.190  0.2224E+01  0.4751E+02
     10.252  0.6818E+00  0.4755E+02
     10.313  0.1647E-01  0.4756E+02
     10.375  0.8278E-02  0.4756E+02
     10.436  0.3964E+00  0.4758E+02
     10.498  0.1478E+01  0.4767E+02
     10.559  0.5092E+00  0.4770E+02
     10.621  0.1439E-01  0.4770E+02
     10.683  0.9160E-01  0.4771E+02
     10.744  0.1412E+01  0.4780E+02
     10.806  0.1894E+01  0.4791E+02
     10.867  0.1195E+01  0.4799E+02
     10.929  0.4364E+01  0.4826E+02
     10.991  0.1853E+01  0.4837E+02
     11.052  0.1657E+01  0.4847E+02
     11.114  0.4421E+01  0.4874E+02
     11.175  0.1132E+01  0.4881E+02
     11.237  0.2237E-01  0.4881E+02
     11.298  0.2713E-04  0.4881E+02
     11.360  0.1791E-08  0.4881E+02
     11.422  0.6410E-14  0.4881E+02
     11.483  0.0000E+00  0.4881E+02
     11.545  0.5378E-10  0.4881E+02
     11.606  0.1995E-05  0.4881E+02
     11.668  0.3946E-02  0.4882E+02
     11.730  0.4568E+00  0.4884E+02
     11.791  0.3772E+01  0.4908E+02
     11.853  0.2804E+01  0.4925E+02
     11.914  0.1795E+00  0.4926E+02
     11.976  0.7709E-03  0.4926E+02
     12.037  0.2883E-05  0.4926E+02
     12.099  0.3857E-02  0.4926E+02
     12.161  0.3282E+00  0.4928E+02
     12.222  0.2051E+01  0.4941E+02
     12.284  0.1187E+01  0.4948E+02
     12.345  0.7677E+00  0.4953E+02
     12.407  0.2223E+01  0.4966E+02
     12.469  0.6418E+00  0.4970E+02
     12.530  0.1450E-01  0.4970E+02
     12.592  0.2027E-04  0.4970E+02
     12.653  0.1583E-08  0.4970E+02
     12.715  0.1430E-05  0.4970E+02
     12.776  0.3145E-02  0.4970E+02
     12.838  0.4028E+00  0.4973E+02
     12.900  0.3646E+01  0.4995E+02
     12.961  0.2956E+01  0.5014E+02
     13.023  0.2468E+00  0.5015E+02
     13.084  0.1335E+01  0.5023E+02
     13.146  0.3679E+01  0.5046E+02
     13.208  0.9432E+00  0.5052E+02
     13.269  0.1880E-01  0.5052E+02
     13.331  0.2318E-04  0.5052E+02
     13.392  0.1853E-08  0.5052E+02
     13.454  0.6908E-05  0.5052E+02
     13.515  0.9102E-02  0.5052E+02
     13.577  0.7164E+00  0.5056E+02
     13.639  0.4171E+01  0.5082E+02
     13.700  0.2222E+01  0.5096E+02
     13.762  0.9875E-01  0.5096E+02
     13.823  0.2855E-03  0.5096E+02
     13.885  0.4616E-07  0.5096E+02
     13.947  0.1715E-08  0.5096E+02
     14.008  0.1957E-04  0.5096E+02
     14.070  0.1225E-01  0.5096E+02
     14.131  0.4787E+00  0.5099E+02
     14.193  0.1481E+01  0.5108E+02
     14.255  0.4239E+00  0.5111E+02
     14.316  0.9480E-02  0.5111E+02
     14.378  0.1680E-03  0.5111E+02
     14.439  0.6771E-01  0.5112E+02
     14.501  0.1893E+01  0.5123E+02
     14.562  0.4330E+01  0.5150E+02
     14.624  0.9116E+00  0.5155E+02
     14.686  0.1451E-01  0.5156E+02
     14.747  0.1401E-04  0.5156E+02
     14.809  0.2112E-03  0.5156E+02
     14.870  0.8079E-01  0.5156E+02
     14.932  0.2028E+01  0.5169E+02
     14.994  0.4262E+01  0.5195E+02
     15.055  0.8340E+00  0.5200E+02
     15.117  0.1244E-01  0.5200E+02
     15.178  0.1139E-04  0.5200E+02
     15.240  0.5732E-09  0.5200E+02
     15.301  0.1202E-14  0.5200E+02
     15.363  0.0000E+00  0.5200E+02
     15.425  0.0000E+00  0.5200E+02
     15.486  0.0000E+00  0.5200E+02
     15.548  0.0000E+00  0.5200E+02
     15.609  0.0000E+00  0.5200E+02
     15.671  0.0000E+00  0.5200E+02
     15.733  0.0000E+00  0.5200E+02
     15.794  0.0000E+00  0.5200E+02
