    4    4    1    1
  0.1266325E+02  0.3700000E-09  0.3700000E-09  0.3700000E-09  0.5000000E-15
  1.000000000000000E-004
  CAR 
 unknown system                          
     44     10     26
 
  0.8333333E-01  0.8333333E-01  0.8333333E-01  0.3703704E-01
    1       -1.841222   1.000000
    2        2.344224   1.000000
    3        2.344224   1.000000
    4        2.344224   1.000000
    5        2.747152   1.000000
    6        2.747152   1.000000
    7        2.747152   1.000000
    8        3.888834   1.000000
    9        3.977339   1.000000
   10        3.977339   1.000000
   11        4.663628   1.000000
   12        4.663628   1.000000
   13        5.044346   1.000000
   14        5.044346   1.000000
   15        5.044346   1.000000
   16        5.097419   1.000000
   17        5.097419   1.000000
   18        5.097419   1.000000
   19        5.276080   1.000000
   20        5.276080   1.000000
   21        5.276080   1.000000
   22        8.161438   0.000000
   23        8.161438   0.000000
   24        8.161438   0.000000
   25       14.160577   0.000000
   26       14.160577   0.000000
 
  0.2500000E+00  0.8333333E-01  0.8333333E-01  0.1111111E+00
    1       -1.213866   1.000000
    2        2.233411   1.000000
    3        2.602299   1.000000
    4        2.602299   1.000000
    5        2.896218   1.000000
    6        2.910614   1.000000
    7        2.910614   1.000000
    8        3.739925   1.000000
    9        4.091447   1.000000
   10        4.095627   1.000000
   11        4.409894   1.000000
   12        4.409894   1.000000
   13        4.533933   1.000000
   14        4.684752   1.000000
   15        4.742144   1.000000
   16        4.918647   1.000000
   17        4.928978   1.000000
   18        4.928978   1.000000
   19        5.180951   1.000000
   20        5.258718   1.000000
   21        5.258718   1.000000
   22        6.090278   1.000000
   23        9.287553   0.000000
   24        9.287553   0.000000
   25       14.522217   0.000000
   26       14.522414   0.000000
 
  0.4166667E+00  0.8333333E-01  0.8333333E-01  0.1111111E+00
    1       -0.031434   1.000000
    2        1.409087   1.000000
    3        2.940114   1.000000
    4        2.940114   1.000000
    5        3.159144   1.000000
    6        3.226345   1.000000
    7        3.226345   1.000000
    8        3.468321   1.000000
    9        3.746696   1.000000
   10        3.746696   1.000000
   11        4.169250   1.000000
   12        4.181467   1.000000
   13        4.324204   1.000000
   14        4.531259   1.000000
   15        4.623997   1.000000
   16        4.685270   1.000000
   17        4.685270   1.000000
   18        4.879525   1.000000
   19        4.969741   1.000000
   20        5.037347   1.000000
   21        5.251997   1.000000
   22        5.251997   1.000000
   23       10.906115   0.000000
   24       10.906115   0.000000
   25       12.894189   0.000000
   26       12.894189   0.000000
 
  0.2500000E+00  0.2500000E+00  0.8333333E-01  0.1111111E+00
    1       -0.611736   1.000000
    2        2.540658   1.000000
    3        2.540658   1.000000
    4        2.796986   1.000000
    5        3.027277   1.000000
    6        3.040242   1.000000
    7        3.040242   1.000000
    8        3.686472   1.000000
    9        4.072320   1.000000
   10        4.072320   1.000000
   11        4.090639   1.000000
   12        4.139588   1.000000
   13        4.151552   1.000000
   14        4.534696   1.000000
   15        4.753723   1.000000
   16        4.802833   1.000000
   17        4.802833   1.000000
   18        4.816980   1.000000
   19        5.140248   1.000000
   20        5.140248   1.000000
   21        5.160574   1.000000
   22        7.033161   0.000000
   23        7.033161   0.000000
   24       10.159397   0.000000
   25       12.374884   0.000000
   26       14.954317   0.000000
 
  0.4166667E+00  0.2500000E+00  0.8333333E-01  0.2222222E+00
    1        0.507106   1.000000
    2        1.825162   1.000000
    3        2.957614   1.000000
    4        3.059600   1.000000
    5        3.184389   1.000000
    6        3.265562   1.000000
    7        3.279992   1.000000
    8        3.508521   1.000000
    9        3.592627   1.000000
   10        3.753805   1.000000
   11        3.874753   1.000000
   12        4.021046   1.000000
   13        4.286868   1.000000
   14        4.529865   1.000000
   15        4.578637   1.000000
   16        4.596501   1.000000
   17        4.621181   1.000000
   18        4.912447   1.000000
   19        5.080673   1.000000
   20        5.081609   1.000000
   21        5.088111   1.000000
   22        5.611557   1.000000
   23        8.313217   0.000000
   24        9.966475   0.000000
   25       11.783430   0.000000
   26       13.622287   0.000000
 
  0.4166667E+00  0.4166667E+00  0.8333333E-01  0.1111111E+00
    1        1.450824   1.000000
    2        2.428990   1.000000
    3        2.428990   1.000000
    4        2.851863   1.000000
    5        3.455104   1.000000
    6        3.475176   1.000000
    7        3.475176   1.000000
    8        3.533260   1.000000
    9        3.656731   1.000000
   10        3.656731   1.000000
   11        3.686764   1.000000
   12        3.898621   1.000000
   13        4.270427   1.000000
   14        4.412916   1.000000
   15        4.416682   1.000000
   16        4.416682   1.000000
   17        4.601372   1.000000
   18        4.827607   1.000000
   19        4.827607   1.000000
   20        4.903372   1.000000
   21        5.560869   1.000000
   22        6.474420   0.962844
   23        6.474420   0.962844
   24        7.847462   0.000000
   25       13.109212   0.000000
   26       14.948347   0.000000
 
  0.2500000E+00  0.2500000E+00  0.2500000E+00  0.3703704E-01
    1       -0.053053   1.000000
    2        2.663945   1.000000
    3        2.663945   1.000000
    4        2.663945   1.000000
    5        3.196165   1.000000
    6        3.196165   1.000000
    7        3.196165   1.000000
    8        3.714578   1.000000
    9        3.962958   1.000000
   10        3.962958   1.000000
   11        3.962958   1.000000
   12        4.076847   1.000000
   13        4.076847   1.000000
   14        4.512509   1.000000
   15        4.512509   1.000000
   16        4.512509   1.000000
   17        4.751263   1.000000
   18        4.751263   1.000000
   19        5.220822   1.000000
   20        5.220822   1.000000
   21        5.220822   1.000000
   22        7.635030   0.000000
   23        7.635030   0.000000
   24        7.635030   0.000000
   25       13.113130   0.000000
   26       13.113130   0.000000
 
  0.4166667E+00  0.2500000E+00  0.2500000E+00  0.1111111E+00
    1        0.948039   1.000000
    2        2.037856   1.000000
    3        2.755525   1.000000
    4        2.755525   1.000000
    5        3.399240   1.000000
    6        3.399240   1.000000
    7        3.480404   1.000000
    8        3.672289   1.000000
    9        3.867637   1.000000
   10        3.879316   1.000000
   11        3.879316   1.000000
   12        3.995216   1.000000
   13        4.111314   1.000000
   14        4.267714   1.000000
   15        4.367648   1.000000
   16        4.367648   1.000000
   17        4.921067   1.000000
   18        4.992018   1.000000
   19        5.153085   1.000000
   20        5.153085   1.000000
   21        5.166830   1.000000
   22        5.796736   1.000000
   23        8.554736   0.000000
   24        8.554736   0.000000
   25       11.078567   0.000000
   26       11.078567   0.000000
 
  0.4166667E+00  0.4166667E+00  0.2500000E+00  0.1111111E+00
    1        1.640468   1.000000
    2        2.281213   1.000000
    3        2.281213   1.000000
    4        2.505061   1.000000
    5        3.631634   1.000000
    6        3.719198   1.000000
    7        3.719198   1.000000
    8        3.933831   1.000000
    9        3.973966   1.000000
   10        3.994795   1.000000
   11        3.994795   1.000000
   12        4.042372   1.000000
   13        4.107898   1.000000
   14        4.158218   1.000000
   15        4.158218   1.000000
   16        4.168888   1.000000
   17        4.898278   1.000000
   18        5.090297   1.000000
   19        5.090297   1.000000
   20        5.097422   1.000000
   21        5.406806   1.000000
   22        6.501246   0.847538
   23        6.501246   0.847538
   24        7.738547   0.000000
   25       10.751653   0.000000
   26       12.207623   0.000000
 
  0.4166667E+00  0.4166667E+00  0.4166667E+00  0.3703704E-01
    1        1.890117   1.000000
    2        2.166685   1.000000
    3        2.166685   1.000000
    4        2.166685   1.000000
    5        3.833970   1.000000
    6        3.833970   1.000000
    7        3.833970   1.000000
    8        3.937945   1.000000
    9        3.937945   1.000000
   10        3.985171   1.000000
   11        3.985171   1.000000
   12        3.985171   1.000000
   13        4.613302   1.000000
   14        4.613302   1.000000
   15        4.613302   1.000000
   16        4.968857   1.000000
   17        5.117887   1.000000
   18        5.117887   1.000000
   19        5.189159   1.000000
   20        5.189159   1.000000
   21        5.189159   1.000000
   22        6.548390   0.379236
   23        6.548390   0.379236
   24        6.548390   0.379236
   25       10.470300   0.000000
   26       10.470302   0.000000
