 vasp.5.4.4.18Apr17-6-g9f103f2a35 (build Jan 01 2020 16:14:11) complex          
  
 executed on             LinuxIFC date 2022.03.02  19:16:08
 running on    4 total cores
 distrk:  each k-point on    4 cores,    1 groups
 distr:  one band on NCORES_PER_BAND=   2 cores,    2 groups


--------------------------------------------------------------------------------------------------------


 INCAR:
 POTCAR:    PAW_PBE Cu 22Jun2005                  
 POTCAR:    PAW_PBE Cu 22Jun2005                  
   VRHFIN =Cu: d10 p1                                                           
   LEXCH  = PE                                                                  
   EATOM  =  1390.9808 eV,  102.2342 Ry                                         
                                                                                
   TITEL  = PAW_PBE Cu 22Jun2005                                                
   LULTRA =        F    use ultrasoft PP ?                                      
   IUNSCR =        1    unscreen: 0-lin 1-nonlin 2-no                           
   RPACOR =    2.000    partial core radius                                     
   POMASS =   63.546; ZVAL   =   11.000    mass and valenz                      
   RCORE  =    2.300    outmost cutoff radius                                   
   RWIGS  =    2.200; RWIGS  =    1.164    wigner-seitz radius (au A)           
   ENMAX  =  295.446; ENMIN  =  221.585 eV                                      
   ICORE  =        3    local potential                                         
   LCOR   =        T    correct aug charges                                     
   LPAW   =        T    paw PP                                                  
   EAUG   =  586.980                                                            
   DEXC   =    0.000                                                            
   RMAX   =    2.344    core radius for proj-oper                               
   RAUG   =    1.300    factor for augmentation sphere                          
   RDEP   =    2.302    radius for radial grids                                 
   RDEPT  =    1.771    core radius for aug-charge                              
                                                                                
   Atomic configuration                                                         
    9 entries                                                                   
     n  l   j            E        occ.                                          
     1  0  0.50     -8850.2468   2.0000                                         
     2  0  0.50     -1062.3498   2.0000                                         
     2  1  1.50      -916.8226   6.0000                                         
     3  0  0.50      -114.6929   2.0000                                         
     3  1  1.50       -72.1325   6.0000                                         
     3  2  2.50        -5.0394  10.0000                                         
     4  0  0.50        -4.6097   1.0000                                         
     4  1  0.50        -4.0817   0.0000                                         
     4  3  2.50        -1.3606   0.0000                                         
   Description                                                                  
     l       E           TYP  RCUT    TYP  RCUT                                 
     2     -5.0393973     23  2.200                                             
     2     10.8846608     23  2.200                                             
     0     -4.6097109     23  2.200                                             
     0      8.2520465     23  2.200                                             
     1     -2.7211652     23  2.200                                             
     1     21.7055443     23  2.200                                             
     3      2.7211652     23  2.300                                             
  local pseudopotential read in
  partial core-charges read in
  partial kinetic energy density read in
  atomic valenz-charges read in
  non local Contribution for L=           2  read in
    real space projection operators read in
  non local Contribution for L=           2  read in
    real space projection operators read in
  non local Contribution for L=           0  read in
    real space projection operators read in
  non local Contribution for L=           0  read in
    real space projection operators read in
  non local Contribution for L=           1  read in
    real space projection operators read in
  non local Contribution for L=           1  read in
    real space projection operators read in
    PAW grid and wavefunctions read in
 
   number of l-projection  operators is LMAX  =           6
   number of lm-projection operators is LMMAX =          18
 
  PAW_PBE Cu 22Jun2005                  :
 energy of atom  1       EATOM=-1390.9808
 kinetic energy error for atom=    0.0422 (will be added to EATOM!!)
 
 
 POSCAR: Cu                                      
  positions in cartesian coordinates
  No initial velocities read in
 exchange correlation table for  LEXCH =        8
   RHO(1)=    0.500       N(1)  =     2000
   RHO(2)=  100.500       N(2)  =     4000
 


--------------------------------------------------------------------------------------------------------


 ion  position               nearest neighbor table
   1  0.000  0.000  0.000-   2 2.62   3 2.62   4 2.62   2 2.62   3 2.62   2 2.62   4 2.62   2 2.62
                             3 2.62   4 2.62   3 2.62   4 2.62
   2  0.000  0.500  0.500-   1 2.62   3 2.62   4 2.62   1 2.62   4 2.62   1 2.62   3 2.62   1 2.62
                             3 2.62   4 2.62   4 2.62   3 2.62
   3  0.500  0.000  0.500-   1 2.62   2 2.62   4 2.62   1 2.62   4 2.62   2 2.62   4 2.62   4 2.62
                             1 2.62   2 2.62   1 2.62   2 2.62
   4  0.500  0.500  0.000-   1 2.62   2 2.62   3 2.62   2 2.62   3 2.62   1 2.62   3 2.62   3 2.62
                             1 2.62   2 2.62   2 2.62   1 2.62
 
  LATTYP: Found a simple cubic cell.
 ALAT       =     3.7000000000
  
  Lattice vectors:
  
 A1 = (   3.7000000000,   0.0000000000,   0.0000000000)
 A2 = (   0.0000000000,   3.7000000000,   0.0000000000)
 A3 = (   0.0000000000,   0.0000000000,   3.7000000000)


Analysis of symmetry for initial positions (statically):
=====================================================================
 Subroutine PRICEL returns following result:
 
  LATTYP: Found a face centered cubic cell.
 ALAT       =     3.7000000000
  
  Lattice vectors:
  
 A1 = (   1.8500000000,   1.8500000000,  -0.0000000000)
 A2 = (   1.8500000000,   0.0000000000,  -1.8500000000)
 A3 = (   0.0000000000,   1.8500000000,  -1.8500000000)
 
   4 primitive cells build up your supercell.
 

 Routine SETGRP: Setting up the symmetry group for a 
 simple cubic supercell.


 Subroutine GETGRP returns: Found 48 space group operations
 (whereof 48 operations were pure point group operations)
 out of a pool of 48 trial point group operations.


The static configuration has the point symmetry O_h .


Analysis of symmetry for dynamics (positions and initial velocities):
=====================================================================
 Subroutine PRICEL returns following result:
 
  LATTYP: Found a face centered cubic cell.
 ALAT       =     3.7000000000
  
  Lattice vectors:
  
 A1 = (   1.8500000000,   1.8500000000,  -0.0000000000)
 A2 = (   1.8500000000,   0.0000000000,  -1.8500000000)
 A3 = (   0.0000000000,   1.8500000000,  -1.8500000000)
 
   4 primitive cells build up your supercell.
 

 Routine SETGRP: Setting up the symmetry group for a 
 simple cubic supercell.


 Subroutine GETGRP returns: Found 48 space group operations
 (whereof 48 operations were pure point group operations)
 out of a pool of 48 trial point group operations.


The dynamic configuration has the point symmetry O_h .


 Subroutine INISYM returns: Found 48 space group operations
 (whereof 48 operations are pure point group operations),
 and found     4 'primitive' translations

 
 
 KPOINTS: KPOINTS created by Atomic Simulation Env

Automatic generation of k-mesh.
Space group operators:
 irot       det(A)        alpha          n_x          n_y          n_z        tau_x        tau_y        tau_z
    1     1.000000     0.000000     1.000000     0.000000     0.000000     0.000000     0.000000     0.000000
    2    -1.000000     0.000000     1.000000     0.000000     0.000000     0.000000     0.000000     0.000000
    3     1.000000   120.000000    -0.577350    -0.577350    -0.577350     0.000000     0.000000     0.000000
    4    -1.000000   120.000000    -0.577350    -0.577350    -0.577350     0.000000     0.000000     0.000000
    5     1.000000   120.000000     0.577350     0.577350     0.577350     0.000000     0.000000     0.000000
    6    -1.000000   120.000000     0.577350     0.577350     0.577350     0.000000     0.000000     0.000000
    7     1.000000    90.000000     0.000000     0.000000    -1.000000     0.000000     0.000000     0.000000
    8    -1.000000    90.000000     0.000000     0.000000    -1.000000     0.000000     0.000000     0.000000
    9     1.000000   180.000000     0.000000     0.707107     0.707107     0.000000     0.000000     0.000000
   10    -1.000000   180.000000     0.000000     0.707107     0.707107     0.000000     0.000000     0.000000
   11     1.000000    90.000000     0.000000     1.000000     0.000000     0.000000     0.000000     0.000000
   12    -1.000000    90.000000     0.000000     1.000000     0.000000     0.000000     0.000000     0.000000
   13     1.000000   180.000000     0.000000     0.000000     1.000000     0.000000     0.000000     0.000000
   14    -1.000000   180.000000     0.000000     0.000000     1.000000     0.000000     0.000000     0.000000
   15     1.000000   120.000000    -0.577350     0.577350     0.577350     0.000000     0.000000     0.000000
   16    -1.000000   120.000000    -0.577350     0.577350     0.577350     0.000000     0.000000     0.000000
   17     1.000000   120.000000    -0.577350     0.577350    -0.577350     0.000000     0.000000     0.000000
   18    -1.000000   120.000000    -0.577350     0.577350    -0.577350     0.000000     0.000000     0.000000
   19     1.000000    90.000000     0.000000     0.000000     1.000000     0.000000     0.000000     0.000000
   20    -1.000000    90.000000     0.000000     0.000000     1.000000     0.000000     0.000000     0.000000
   21     1.000000    90.000000    -1.000000     0.000000     0.000000     0.000000     0.000000     0.000000
   22    -1.000000    90.000000    -1.000000     0.000000     0.000000     0.000000     0.000000     0.000000
   23     1.000000   180.000000     0.707107     0.000000     0.707107     0.000000     0.000000     0.000000
   24    -1.000000   180.000000     0.707107     0.000000     0.707107     0.000000     0.000000     0.000000
   25     1.000000   120.000000     0.577350    -0.577350     0.577350     0.000000     0.000000     0.000000
   26    -1.000000   120.000000     0.577350    -0.577350     0.577350     0.000000     0.000000     0.000000
   27     1.000000   120.000000    -0.577350    -0.577350     0.577350     0.000000     0.000000     0.000000
   28    -1.000000   120.000000    -0.577350    -0.577350     0.577350     0.000000     0.000000     0.000000
   29     1.000000   180.000000     1.000000     0.000000     0.000000     0.000000     0.000000     0.000000
   30    -1.000000   180.000000     1.000000     0.000000     0.000000     0.000000     0.000000     0.000000
   31     1.000000    90.000000     0.000000    -1.000000     0.000000     0.000000     0.000000     0.000000
   32    -1.000000    90.000000     0.000000    -1.000000     0.000000     0.000000     0.000000     0.000000
   33     1.000000   180.000000     0.707107     0.707107     0.000000     0.000000     0.000000     0.000000
   34    -1.000000   180.000000     0.707107     0.707107     0.000000     0.000000     0.000000     0.000000
   35     1.000000    90.000000     1.000000     0.000000     0.000000     0.000000     0.000000     0.000000
   36    -1.000000    90.000000     1.000000     0.000000     0.000000     0.000000     0.000000     0.000000
   37     1.000000   120.000000     0.577350    -0.577350    -0.577350     0.000000     0.000000     0.000000
   38    -1.000000   120.000000     0.577350    -0.577350    -0.577350     0.000000     0.000000     0.000000
   39     1.000000   180.000000     0.000000     1.000000     0.000000     0.000000     0.000000     0.000000
   40    -1.000000   180.000000     0.000000     1.000000     0.000000     0.000000     0.000000     0.000000
   41     1.000000   120.000000     0.577350     0.577350    -0.577350     0.000000     0.000000     0.000000
   42    -1.000000   120.000000     0.577350     0.577350    -0.577350     0.000000     0.000000     0.000000
   43     1.000000   180.000000     0.000000    -0.707107     0.707107     0.000000     0.000000     0.000000
   44    -1.000000   180.000000     0.000000    -0.707107     0.707107     0.000000     0.000000     0.000000
   45     1.000000   180.000000     0.707107    -0.707107     0.000000     0.000000     0.000000     0.000000
   46    -1.000000   180.000000     0.707107    -0.707107     0.000000     0.000000     0.000000     0.000000
   47     1.000000   180.000000     0.707107     0.000000    -0.707107     0.000000     0.000000     0.000000
   48    -1.000000   180.000000     0.707107     0.000000    -0.707107     0.000000     0.000000     0.000000
 
 Subroutine IBZKPT returns following result:
 ===========================================
 
 Found     10 irreducible k-points:
 
 Following reciprocal coordinates:
            Coordinates               Weight
  0.083333  0.083333  0.083333      8.000000
  0.250000  0.083333  0.083333     24.000000
  0.416667  0.083333  0.083333     24.000000
  0.250000  0.250000  0.083333     24.000000
  0.416667  0.250000  0.083333     48.000000
  0.416667  0.416667  0.083333     24.000000
  0.250000  0.250000  0.250000      8.000000
  0.416667  0.250000  0.250000     24.000000
  0.416667  0.416667  0.250000     24.000000
  0.416667  0.416667  0.416667      8.000000
 
 Following cartesian coordinates:
            Coordinates               Weight
  0.022523  0.022523  0.022523      8.000000
  0.067568  0.022523  0.022523     24.000000
  0.112613  0.022523  0.022523     24.000000
  0.067568  0.067568  0.022523     24.000000
  0.112613  0.067568  0.022523     48.000000
  0.112613  0.112613  0.022523     24.000000
  0.067568  0.067568  0.067568      8.000000
  0.112613  0.067568  0.067568     24.000000
  0.112613  0.112613  0.067568     24.000000
  0.112613  0.112613  0.112613      8.000000
 


--------------------------------------------------------------------------------------------------------




 Dimension of arrays:
   k-points           NKPTS =     10   k-points in BZ     NKDIM =     10   number of bands    NBANDS=     26
   number of dos      NEDOS =    301   number of ions     NIONS =      4
   non local maximal  LDIM  =      6   non local SUM 2l+1 LMDIM =     18
   total plane-waves  NPLWV =  13824
   max r-space proj   IRMAX =      1   max aug-charges    IRDMAX=   8104
   dimension x,y,z NGX =    24 NGY =   24 NGZ =   24
   dimension x,y,z NGXF=    48 NGYF=   48 NGZF=   48
   support grid    NGXF=    48 NGYF=   48 NGZF=   48
   ions per type =               4
   NGX,Y,Z   is equivalent  to a cutoff of  10.78, 10.78, 10.78 a.u.
   NGXF,Y,Z  is equivalent  to a cutoff of  21.57, 21.57, 21.57 a.u.

 SYSTEM =  unknown system                          
 POSCAR =  Cu                                      

 Startparameter for this run:
   NWRITE =      2    write-flag & timer
   PREC   = accura    normal or accurate (medium, high low for compatibility)
   ISTART =      0    job   : 0-new  1-cont  2-samecut
   ICHARG =      2    charge: 1-file 2-atom 10-const
   ISPIN  =      1    spin polarized calculation?
   LNONCOLLINEAR =      F non collinear calculations
   LSORBIT =      F    spin-orbit coupling
   INIWAV =      1    electr: 0-lowe 1-rand  2-diag
   LASPH  =      F    aspherical Exc in radial PAW
   METAGGA=      F    non-selfconsistent MetaGGA calc.

 Electronic Relaxation 1
   ENCUT  =  300.0 eV  22.05 Ry    4.70 a.u.   5.23  5.23  5.23*2*pi/ulx,y,z
   ENINI  =  300.0     initial cutoff
   ENAUG  =  587.0 eV  augmentation charge cutoff
   NELM   =    100;   NELMIN=  4; NELMDL= -5     # of ELM steps 
   EDIFF  = 0.1E-04   stopping-criterion for ELM
   LREAL  =      F    real-space projection
   NLSPLINE    = F    spline interpolate recip. space projectors
   LCOMPAT=      F    compatible to vasp.4.4
   GGA_COMPAT  = T    GGA compatible to vasp.4.4-vasp.4.6
   LMAXPAW     = -100 max onsite density
   LMAXMIX     =    2 max onsite mixed and CHGCAR
   VOSKOWN=      0    Vosko Wilk Nusair interpolation
   ROPT   =    0.00000
 Ionic relaxation
   EDIFFG = 0.1E-03   stopping-criterion for IOM
   NSW    =      0    number of steps for IOM
   NBLOCK =      1;   KBLOCK =      1    inner block; outer block 
   IBRION =     -1    ionic relax: 0-MD 1-quasi-New 2-CG
   NFREE  =      0    steps in history (QN), initial steepest desc. (CG)
   ISIF   =      2    stress and relaxation
   IWAVPR =     10    prediction:  0-non 1-charg 2-wave 3-comb
   ISYM   =      2    0-nonsym 1-usesym 2-fastsym
   LCORR  =      T    Harris-Foulkes like correction to forces

   POTIM  = 0.5000    time-step for ionic-motion
   TEIN   =    0.0    initial temperature
   TEBEG  =    0.0;   TEEND  =   0.0 temperature during run
   SMASS  =  -3.00    Nose mass-parameter (am)
   estimated Nose-frequenzy (Omega)   =  0.10E-29 period in steps =****** mass=  -0.313E-27a.u.
   SCALEE = 1.0000    scale energy and forces
   NPACO  =    256;   APACO  = 16.0  distance and # of slots for P.C.
   PSTRESS=    0.0 pullay stress

  Mass of Ions in am
   POMASS =  63.55
  Ionic Valenz
   ZVAL   =  11.00
  Atomic Wigner-Seitz radii
   RWIGS  =  -1.00
  virtual crystal weights 
   VCA    =   1.00
   NELECT =      44.0000    total number of electrons
   NUPDOWN=      -1.0000    fix difference up-down

 DOS related values:
   EMIN   =  10.00;   EMAX   =-10.00  energy-range for DOS
   EFERMI =   0.00
   ISMEAR =     0;   SIGMA  =   0.05  broadening in eV -4-tet -1-fermi 0-gaus

 Electronic relaxation 2 (details)
   IALGO  =     68    algorithm
   LDIAG  =      T    sub-space diagonalisation (order eigenvalues)
   LSUBROT=      F    optimize rotation matrix (better conditioning)
   TURBO    =      0    0=normal 1=particle mesh
   IRESTART =      0    0=no restart 2=restart with 2 vectors
   NREBOOT  =      0    no. of reboots
   NMIN     =      0    reboot dimension
   EREF     =   0.00    reference energy to select bands
   IMIX   =      4    mixing-type and parameters
     AMIX     =   0.40;   BMIX     =  1.00
     AMIX_MAG =   1.60;   BMIX_MAG =  1.00
     AMIN     =   0.10
     WC   =   100.;   INIMIX=   1;  MIXPRE=   1;  MAXMIX= -45

 Intra band minimization:
   WEIMIN = 0.0000     energy-eigenvalue tresh-hold
   EBREAK =  0.96E-07  absolut break condition
   DEPER  =   0.30     relativ break condition  

   TIME   =   0.40     timestep for ELM

  volume/ion in A,a.u.               =      12.66        85.46
  Fermi-wavevector in a.u.,A,eV,Ry     =   1.562035  2.951817 33.197566  2.439952
  Thomas-Fermi vector in A             =   2.665012
 
 Write flags
   LWAVE        =      F    write WAVECAR
   LDOWNSAMPLE  =      F    k-point downsampling of WAVECAR
   LCHARG       =      T    write CHGCAR
   LVTOT        =      F    write LOCPOT, total local potential
   LVHAR        =      F    write LOCPOT, Hartree potential only
   LELF         =      F    write electronic localiz. function (ELF)
   LORBIT       =      0    0 simple, 1 ext, 2 COOP (PROOUT), +10 PAW based schemes


 Dipole corrections
   LMONO  =      F    monopole corrections only (constant potential shift)
   LDIPOL =      F    correct potential (dipole corrections)
   IDIPOL =      0    1-x, 2-y, 3-z, 4-all directions 
   EPSILON=  1.0000000 bulk dielectric constant

 Exchange correlation treatment:
   GGA     =    PE    GGA type
   LEXCH   =     8    internal setting for exchange type
   VOSKOWN=      0    Vosko Wilk Nusair interpolation
   LHFCALC =     F    Hartree Fock is set to
   LHFONE  =     F    Hartree Fock one center treatment
   AEXX    =    0.0000 exact exchange contribution

 Linear response parameters
   LEPSILON=     F    determine dielectric tensor
   LRPA    =     F    only Hartree local field effects (RPA)
   LNABLA  =     F    use nabla operator in PAW spheres
   LVEL    =     F    velocity operator in full k-point grid
   LINTERFAST=   F  fast interpolation
   KINTER  =     0    interpolate to denser k-point grid
   CSHIFT  =0.1000    complex shift for real part using Kramers Kronig
   OMEGAMAX=  -1.0    maximum frequency
   DEG_THRESHOLD= 0.2000000E-02 threshold for treating states as degnerate
   RTIME   =   -0.100 relaxation time in fs
  (WPLASMAI=    0.000 imaginary part of plasma frequency in eV, 0.658/RTIME)
   DFIELD  = 0.0000000 0.0000000 0.0000000 field for delta impulse in time
 
 Orbital magnetization related:
   ORBITALMAG=     F  switch on orbital magnetization
   LCHIMAG   =     F  perturbation theory with respect to B field
   DQ        =  0.001000  dq finite difference perturbation B field
   LLRAUG    =     F  two centre corrections for induced B field



--------------------------------------------------------------------------------------------------------


 Static calculation
 charge density and potential will be updated during run
 non-spin polarized calculation
 RMM-DIIS sequential band-by-band and
  variant of blocked Davidson during initial phase
 perform sub-space diagonalisation
    before iterative eigenvector-optimisation
 modified Broyden-mixing scheme, WC =      100.0
 initial mixing is a Kerker type mixing with AMIX =  0.4000 and BMIX =      1.0000
 Hartree-type preconditioning will be used
 using additional bands            4
 reciprocal scheme for non local part
 use partial core corrections
 calculate Harris-corrections to forces 
   (improved forces if not selfconsistent)
 use gradient corrections 
 use of overlap-Matrix (Vanderbilt PP)
 Gauss-broadening in eV      SIGMA  =   0.05


--------------------------------------------------------------------------------------------------------


  energy-cutoff  :      300.00
  volume of cell :       50.65
      direct lattice vectors                 reciprocal lattice vectors
     3.700000000  0.000000000  0.000000000     0.270270270  0.000000000  0.000000000
     0.000000000  3.700000000  0.000000000     0.000000000  0.270270270  0.000000000
     0.000000000  0.000000000  3.700000000     0.000000000  0.000000000  0.270270270

  length of vectors
     3.700000000  3.700000000  3.700000000     0.270270270  0.270270270  0.270270270


 
 k-points in units of 2pi/SCALE and weight: KPOINTS created by Atomic Simulation Env
   0.02252252  0.02252252  0.02252252       0.037
   0.06756757  0.02252252  0.02252252       0.111
   0.11261261  0.02252252  0.02252252       0.111
   0.06756757  0.06756757  0.02252252       0.111
   0.11261261  0.06756757  0.02252252       0.222
   0.11261261  0.11261261  0.02252252       0.111
   0.06756757  0.06756757  0.06756757       0.037
   0.11261261  0.06756757  0.06756757       0.111
   0.11261261  0.11261261  0.06756757       0.111
   0.11261261  0.11261261  0.11261261       0.037
 
 k-points in reciprocal lattice and weights: KPOINTS created by Atomic Simulation Env
   0.08333333  0.08333333  0.08333333       0.037
   0.25000000  0.08333333  0.08333333       0.111
   0.41666667  0.08333333  0.08333333       0.111
   0.25000000  0.25000000  0.08333333       0.111
   0.41666667  0.25000000  0.08333333       0.222
   0.41666667  0.41666667  0.08333333       0.111
   0.25000000  0.25000000  0.25000000       0.037
   0.41666667  0.25000000  0.25000000       0.111
   0.41666667  0.41666667  0.25000000       0.111
   0.41666667  0.41666667  0.41666667       0.037
 
 position of ions in fractional coordinates (direct lattice) 
   0.00000000  0.00000000  0.00000000
   0.00000000  0.50000000  0.50000000
   0.50000000  0.00000000  0.50000000
   0.50000000  0.50000000  0.00000000
 
 position of ions in cartesian coordinates  (Angst):
   0.00000000  0.00000000  0.00000000
   0.00000000  1.85000000  1.85000000
   1.85000000  0.00000000  1.85000000
   1.85000000  1.85000000  0.00000000
 


--------------------------------------------------------------------------------------------------------


 k-point  1 :   0.0833 0.0833 0.0833  plane waves:     597
 k-point  2 :   0.2500 0.0833 0.0833  plane waves:     602
 k-point  3 :   0.4167 0.0833 0.0833  plane waves:     599
 k-point  4 :   0.2500 0.2500 0.0833  plane waves:     596
 k-point  5 :   0.4167 0.2500 0.0833  plane waves:     596
 k-point  6 :   0.4167 0.4167 0.0833  plane waves:     596
 k-point  7 :   0.2500 0.2500 0.2500  plane waves:     597
 k-point  8 :   0.4167 0.2500 0.2500  plane waves:     596
 k-point  9 :   0.4167 0.4167 0.2500  plane waves:     605
 k-point 10 :   0.4167 0.4167 0.4167  plane waves:     606

 maximum and minimum number of plane-waves per node :       304      293

 maximum number of plane-waves:       606
 maximum index in each direction: 
   IXMAX=    5   IYMAX=    5   IZMAX=    5
   IXMIN=   -5   IYMIN=   -5   IZMIN=   -5


 parallel 3D FFT for wavefunctions:
    minimum data exchange during FFTs selected (reduces bandwidth)
 parallel 3D FFT for charge:
    minimum data exchange during FFTs selected (reduces bandwidth)


 total amount of memory used by VASP MPI-rank0    34009. kBytes
=======================================================================

   base      :      30000. kBytes
   nonl-proj :        457. kBytes
   fftplans  :       1169. kBytes
   grid      :       1645. kBytes
   one-center:         31. kBytes
   wavefun   :        707. kBytes
 
     INWAV:  cpu time    0.0000: real time    0.0000
 Broyden mixing: mesh for mixing (old mesh)
   NGX = 11   NGY = 11   NGZ = 11
  (NGX  = 48   NGY  = 48   NGZ  = 48)
  gives a total of   1331 points

 initial charge density was supplied:
 charge density of overlapping atoms calculated
 number of electron      44.0000000 magnetization 
 keeping initial charge density in first step


--------------------------------------------------------------------------------------------------------


 Maximum index for augmentation-charges         1919 (set IRDMAX)


--------------------------------------------------------------------------------------------------------


 First call to EWALD:  gamma=   0.479
 Maximum number of real-space cells 3x 3x 3
 Maximum number of reciprocal cells 3x 3x 3

    FEWALD:  cpu time    0.0019: real time    0.0019


--------------------------------------- Iteration      1(   1)  ---------------------------------------


    POTLOK:  cpu time    0.0245: real time    0.0439
    SETDIJ:  cpu time    0.0046: real time    0.0046
     EDDAV:  cpu time    0.1442: real time    0.1442
       DOS:  cpu time    0.0005: real time    0.0004
    --------------------------------------------
      LOOP:  cpu time    0.1738: real time    0.1932

 eigenvalue-minimisations  :   520
 total energy-change (2. order) : 0.2812385E+03  (-0.1419734E+04)
 number of electron      44.0000000 magnetization 
 augmentation part       44.0000000 magnetization 

 Free energy of the ion-electron system (eV)
  ---------------------------------------------------
  alpha Z        PSCENC =       231.00800727
  Ewald energy   TEWEN  =     -4318.13280520
  -Hartree energ DENC   =     -1502.76605850
  -exchange      EXHF   =         0.00000000
  -V(xc)+E(xc)   XCENC  =       182.38832218
  PAW double counting   =      4912.82663951    -5336.19386850
  entropy T*S    EENTRO =        -0.00088469
  eigenvalues    EBANDS =       548.35483273
  atomic energy  EATOM  =      5563.75431560
  Solvation  Ediel_sol  =         0.00000000
  ---------------------------------------------------
  free energy    TOTEN  =       281.23850039 eV

  energy without entropy =      281.23938508  energy(sigma->0) =      281.23894274


--------------------------------------------------------------------------------------------------------




--------------------------------------- Iteration      1(   2)  ---------------------------------------


     EDDAV:  cpu time    0.1268: real time    0.1268
       DOS:  cpu time    0.0005: real time    0.0005
    --------------------------------------------
      LOOP:  cpu time    0.1273: real time    0.1273

 eigenvalue-minimisations  :   520
 total energy-change (2. order) :-0.2793940E+03  (-0.2739288E+03)
 number of electron      44.0000000 magnetization 
 augmentation part       44.0000000 magnetization 

 Free energy of the ion-electron system (eV)
  ---------------------------------------------------
  alpha Z        PSCENC =       231.00800727
  Ewald energy   TEWEN  =     -4318.13280520
  -Hartree energ DENC   =     -1502.76605850
  -exchange      EXHF   =         0.00000000
  -V(xc)+E(xc)   XCENC  =       182.38832218
  PAW double counting   =      4912.82663951    -5336.19386850
  entropy T*S    EENTRO =        -0.00101023
  eigenvalues    EBANDS =       268.96094468
  atomic energy  EATOM  =      5563.75431560
  Solvation  Ediel_sol  =         0.00000000
  ---------------------------------------------------
  free energy    TOTEN  =         1.84448681 eV

  energy without entropy =        1.84549704  energy(sigma->0) =        1.84499192


--------------------------------------------------------------------------------------------------------




--------------------------------------- Iteration      1(   3)  ---------------------------------------


     EDDAV:  cpu time    0.1350: real time    0.1350
       DOS:  cpu time    0.0005: real time    0.0005
    --------------------------------------------
      LOOP:  cpu time    0.1355: real time    0.1355

 eigenvalue-minimisations  :   564
 total energy-change (2. order) :-0.1981415E+02  (-0.1887877E+02)
 number of electron      44.0000000 magnetization 
 augmentation part       44.0000000 magnetization 

 Free energy of the ion-electron system (eV)
  ---------------------------------------------------
  alpha Z        PSCENC =       231.00800727
  Ewald energy   TEWEN  =     -4318.13280520
  -Hartree energ DENC   =     -1502.76605850
  -exchange      EXHF   =         0.00000000
  -V(xc)+E(xc)   XCENC  =       182.38832218
  PAW double counting   =      4912.82663951    -5336.19386850
  entropy T*S    EENTRO =        -0.00626497
  eigenvalues    EBANDS =       249.15204727
  atomic energy  EATOM  =      5563.75431560
  Solvation  Ediel_sol  =         0.00000000
  ---------------------------------------------------
  free energy    TOTEN  =       -17.96966534 eV

  energy without entropy =      -17.96340037  energy(sigma->0) =      -17.96653286


--------------------------------------------------------------------------------------------------------




--------------------------------------- Iteration      1(   4)  ---------------------------------------


     EDDAV:  cpu time    0.1362: real time    0.1363
       DOS:  cpu time    0.0005: real time    0.0005
    --------------------------------------------
      LOOP:  cpu time    0.1367: real time    0.1367

 eigenvalue-minimisations  :   578
 total energy-change (2. order) :-0.3569239E+00  (-0.3564131E+00)
 number of electron      44.0000000 magnetization 
 augmentation part       44.0000000 magnetization 

 Free energy of the ion-electron system (eV)
  ---------------------------------------------------
  alpha Z        PSCENC =       231.00800727
  Ewald energy   TEWEN  =     -4318.13280520
  -Hartree energ DENC   =     -1502.76605850
  -exchange      EXHF   =         0.00000000
  -V(xc)+E(xc)   XCENC  =       182.38832218
  PAW double counting   =      4912.82663951    -5336.19386850
  entropy T*S    EENTRO =        -0.00627362
  eigenvalues    EBANDS =       248.79513202
  atomic energy  EATOM  =      5563.75431560
  Solvation  Ediel_sol  =         0.00000000
  ---------------------------------------------------
  free energy    TOTEN  =       -18.32658924 eV

  energy without entropy =      -18.32031562  energy(sigma->0) =      -18.32345243


--------------------------------------------------------------------------------------------------------




--------------------------------------- Iteration      1(   5)  ---------------------------------------


     EDDAV:  cpu time    0.1484: real time    0.1484
       DOS:  cpu time    0.0004: real time    0.0004
    CHARGE:  cpu time    0.0154: real time    0.0154
    MIXING:  cpu time    0.0006: real time    0.0006
    --------------------------------------------
      LOOP:  cpu time    0.1648: real time    0.1648

 eigenvalue-minimisations  :   660
 total energy-change (2. order) :-0.5583903E-02  (-0.5583556E-02)
 number of electron      44.0000336 magnetization 
 augmentation part       25.9874014 magnetization 

 Broyden mixing:
  rms(total) = 0.15079E+01    rms(broyden)= 0.15076E+01
  rms(prec ) = 0.35139E+01
  weight for this iteration     100.00

 Free energy of the ion-electron system (eV)
  ---------------------------------------------------
  alpha Z        PSCENC =       231.00800727
  Ewald energy   TEWEN  =     -4318.13280520
  -Hartree energ DENC   =     -1502.76605850
  -exchange      EXHF   =         0.00000000
  -V(xc)+E(xc)   XCENC  =       182.38832218
  PAW double counting   =      4912.82663951    -5336.19386850
  entropy T*S    EENTRO =        -0.00627344
  eigenvalues    EBANDS =       248.78954794
  atomic energy  EATOM  =      5563.75431560
  Solvation  Ediel_sol  =         0.00000000
  ---------------------------------------------------
  free energy    TOTEN  =       -18.33217314 eV

  energy without entropy =      -18.32589971  energy(sigma->0) =      -18.32903643


--------------------------------------------------------------------------------------------------------




--------------------------------------- Iteration      1(   6)  ---------------------------------------


    POTLOK:  cpu time    0.0119: real time    0.0119
    SETDIJ:  cpu time    0.0026: real time    0.0026
    EDDIAG:  cpu time    0.0291: real time    0.0291
  RMM-DIIS:  cpu time    0.0846: real time    0.0847
    ORTHCH:  cpu time    0.0023: real time    0.0023
       DOS:  cpu time    0.0002: real time    0.0002
    CHARGE:  cpu time    0.0148: real time    0.0148
    MIXING:  cpu time    0.0006: real time    0.0006
    --------------------------------------------
      LOOP:  cpu time    0.1461: real time    0.1461

 eigenvalue-minimisations  :   535
 total energy-change (2. order) : 0.1891333E+01  (-0.4271318E+01)
 number of electron      44.0000373 magnetization 
 augmentation part       29.4305457 magnetization 

 Broyden mixing:
  rms(total) = 0.86673E+00    rms(broyden)= 0.86618E+00
  rms(prec ) = 0.18336E+01
  weight for this iteration     100.00

 eigenvalues of (default mixing * dielectric matrix)
  average eigenvalue GAMMA=   0.6356
  0.6356

 Free energy of the ion-electron system (eV)
  ---------------------------------------------------
  alpha Z        PSCENC =       231.00800727
  Ewald energy   TEWEN  =     -4318.13280520
  -Hartree energ DENC   =     -1389.60164788
  -exchange      EXHF   =         0.00000000
  -V(xc)+E(xc)   XCENC  =       176.81961677
  PAW double counting   =      4945.14175637    -5345.52995490
  entropy T*S    EENTRO =        -0.00000000
  eigenvalues    EBANDS =       120.09987195
  atomic energy  EATOM  =      5563.75431560
  Solvation  Ediel_sol  =         0.00000000
  ---------------------------------------------------
  free energy    TOTEN  =       -16.44084002 eV

  energy without entropy =      -16.44084002  energy(sigma->0) =      -16.44084002


--------------------------------------------------------------------------------------------------------




--------------------------------------- Iteration      1(   7)  ---------------------------------------


    POTLOK:  cpu time    0.0114: real time    0.0114
    SETDIJ:  cpu time    0.0025: real time    0.0025
    EDDIAG:  cpu time    0.0296: real time    0.0296
  RMM-DIIS:  cpu time    0.0834: real time    0.0834
    ORTHCH:  cpu time    0.0023: real time    0.0023
       DOS:  cpu time    0.0004: real time    0.0004
    CHARGE:  cpu time    0.0147: real time    0.0147
    MIXING:  cpu time    0.0006: real time    0.0006
    --------------------------------------------
      LOOP:  cpu time    0.1450: real time    0.1450

 eigenvalue-minimisations  :   527
 total energy-change (2. order) : 0.1592217E+01  (-0.7810544E+00)
 number of electron      44.0000357 magnetization 
 augmentation part       28.0105978 magnetization 

 Broyden mixing:
  rms(total) = 0.11005E+00    rms(broyden)= 0.10974E+00
  rms(prec ) = 0.27713E+00
  weight for this iteration     100.00

 eigenvalues of (default mixing * dielectric matrix)
  average eigenvalue GAMMA=   1.2359
  1.8574  0.6144

 Free energy of the ion-electron system (eV)
  ---------------------------------------------------
  alpha Z        PSCENC =       231.00800727
  Ewald energy   TEWEN  =     -4318.13280520
  -Hartree energ DENC   =     -1426.56715702
  -exchange      EXHF   =         0.00000000
  -V(xc)+E(xc)   XCENC  =       178.74827568
  PAW double counting   =      5042.42529686    -5462.33342265
  entropy T*S    EENTRO =        -0.00989224
  eigenvalues    EBANDS =       176.25875857
  atomic energy  EATOM  =      5563.75431560
  Solvation  Ediel_sol  =         0.00000000
  ---------------------------------------------------
  free energy    TOTEN  =       -14.84862313 eV

  energy without entropy =      -14.83873089  energy(sigma->0) =      -14.84367701


--------------------------------------------------------------------------------------------------------




--------------------------------------- Iteration      1(   8)  ---------------------------------------


    POTLOK:  cpu time    0.0114: real time    0.0114
    SETDIJ:  cpu time    0.0025: real time    0.0025
    EDDIAG:  cpu time    0.0291: real time    0.0291
  RMM-DIIS:  cpu time    0.0859: real time    0.0859
    ORTHCH:  cpu time    0.0023: real time    0.0023
       DOS:  cpu time    0.0004: real time    0.0004
    CHARGE:  cpu time    0.0147: real time    0.0147
    MIXING:  cpu time    0.0006: real time    0.0006
    --------------------------------------------
      LOOP:  cpu time    0.1469: real time    0.1469

 eigenvalue-minimisations  :   544
 total energy-change (2. order) : 0.2721996E-01  (-0.3832731E-02)
 number of electron      44.0000357 magnetization 
 augmentation part       28.0347536 magnetization 

 Broyden mixing:
  rms(total) = 0.48754E-01    rms(broyden)= 0.48734E-01
  rms(prec ) = 0.11990E+00
  weight for this iteration     100.00

 eigenvalues of (default mixing * dielectric matrix)
  average eigenvalue GAMMA=   1.3305
  0.6274  0.9775  2.3864

 Free energy of the ion-electron system (eV)
  ---------------------------------------------------
  alpha Z        PSCENC =       231.00800727
  Ewald energy   TEWEN  =     -4318.13280520
  -Hartree energ DENC   =     -1416.63617433
  -exchange      EXHF   =         0.00000000
  -V(xc)+E(xc)   XCENC  =       178.34145859
  PAW double counting   =      5143.63138984    -5571.71225812
  entropy T*S    EENTRO =        -0.00939957
  eigenvalues    EBANDS =       174.93406274
  atomic energy  EATOM  =      5563.75431560
  Solvation  Ediel_sol  =         0.00000000
  ---------------------------------------------------
  free energy    TOTEN  =       -14.82140317 eV

  energy without entropy =      -14.81200360  energy(sigma->0) =      -14.81670338


--------------------------------------------------------------------------------------------------------




--------------------------------------- Iteration      1(   9)  ---------------------------------------


    POTLOK:  cpu time    0.0114: real time    0.0114
    SETDIJ:  cpu time    0.0025: real time    0.0025
    EDDIAG:  cpu time    0.0290: real time    0.0290
  RMM-DIIS:  cpu time    0.0873: real time    0.0873
    ORTHCH:  cpu time    0.0023: real time    0.0023
       DOS:  cpu time    0.0004: real time    0.0004
    CHARGE:  cpu time    0.0147: real time    0.0147
    MIXING:  cpu time    0.0006: real time    0.0006
    --------------------------------------------
      LOOP:  cpu time    0.1482: real time    0.1483

 eigenvalue-minimisations  :   554
 total energy-change (2. order) : 0.3946053E-02  (-0.1291960E-02)
 number of electron      44.0000358 magnetization 
 augmentation part       28.1034590 magnetization 

 Broyden mixing:
  rms(total) = 0.75556E-02    rms(broyden)= 0.75440E-02
  rms(prec ) = 0.16672E-01
  weight for this iteration     100.00

 eigenvalues of (default mixing * dielectric matrix)
  average eigenvalue GAMMA=   1.5712
  2.7713  0.6296  0.9201  1.9638

 Free energy of the ion-electron system (eV)
  ---------------------------------------------------
  alpha Z        PSCENC =       231.00800727
  Ewald energy   TEWEN  =     -4318.13280520
  -Hartree energ DENC   =     -1411.92225618
  -exchange      EXHF   =         0.00000000
  -V(xc)+E(xc)   XCENC  =       178.13461308
  PAW double counting   =      5178.79914817    -5608.76163257
  entropy T*S    EENTRO =        -0.00772301
  eigenvalues    EBANDS =       172.31087573
  atomic energy  EATOM  =      5563.75431560
  Solvation  Ediel_sol  =         0.00000000
  ---------------------------------------------------
  free energy    TOTEN  =       -14.81745711 eV

  energy without entropy =      -14.80973410  energy(sigma->0) =      -14.81359561


--------------------------------------------------------------------------------------------------------




--------------------------------------- Iteration      1(  10)  ---------------------------------------


    POTLOK:  cpu time    0.0114: real time    0.0114
    SETDIJ:  cpu time    0.0025: real time    0.0025
    EDDIAG:  cpu time    0.0290: real time    0.0291
  RMM-DIIS:  cpu time    0.0896: real time    0.0896
    ORTHCH:  cpu time    0.0023: real time    0.0023
       DOS:  cpu time    0.0004: real time    0.0004
    CHARGE:  cpu time    0.0147: real time    0.0147
    MIXING:  cpu time    0.0006: real time    0.0006
    --------------------------------------------
      LOOP:  cpu time    0.1505: real time    0.1505

 eigenvalue-minimisations  :   567
 total energy-change (2. order) :-0.8032720E-04  (-0.9446862E-04)
 number of electron      44.0000358 magnetization 
 augmentation part       28.0999863 magnetization 

 Broyden mixing:
  rms(total) = 0.37309E-02    rms(broyden)= 0.37308E-02
  rms(prec ) = 0.82676E-02
  weight for this iteration     100.00

 eigenvalues of (default mixing * dielectric matrix)
  average eigenvalue GAMMA=   1.5748
  2.8938  2.2861  0.6284  1.0330  1.0330

 Free energy of the ion-electron system (eV)
  ---------------------------------------------------
  alpha Z        PSCENC =       231.00800727
  Ewald energy   TEWEN  =     -4318.13280520
  -Hartree energ DENC   =     -1412.32837262
  -exchange      EXHF   =         0.00000000
  -V(xc)+E(xc)   XCENC  =       178.15382585
  PAW double counting   =      5179.95056239    -5609.78879427
  entropy T*S    EENTRO =        -0.00790635
  eigenvalues    EBANDS =       172.57362989
  atomic energy  EATOM  =      5563.75431560
  Solvation  Ediel_sol  =         0.00000000
  ---------------------------------------------------
  free energy    TOTEN  =       -14.81753744 eV

  energy without entropy =      -14.80963109  energy(sigma->0) =      -14.81358426


--------------------------------------------------------------------------------------------------------




--------------------------------------- Iteration      1(  11)  ---------------------------------------


    POTLOK:  cpu time    0.0115: real time    0.0115
    SETDIJ:  cpu time    0.0025: real time    0.0025
    EDDIAG:  cpu time    0.0290: real time    0.0290
  RMM-DIIS:  cpu time    0.0851: real time    0.0851
    ORTHCH:  cpu time    0.0023: real time    0.0023
       DOS:  cpu time    0.0004: real time    0.0004
    CHARGE:  cpu time    0.0148: real time    0.0148
    MIXING:  cpu time    0.0006: real time    0.0006
    --------------------------------------------
      LOOP:  cpu time    0.1462: real time    0.1462

 eigenvalue-minimisations  :   538
 total energy-change (2. order) :-0.1466138E-04  (-0.3069611E-04)
 number of electron      44.0000358 magnetization 
 augmentation part       28.0919844 magnetization 

 Broyden mixing:
  rms(total) = 0.26826E-02    rms(broyden)= 0.26815E-02
  rms(prec ) = 0.60461E-02
  weight for this iteration     100.00

 eigenvalues of (default mixing * dielectric matrix)
  average eigenvalue GAMMA=   1.4664
  2.6650  2.3202  0.6283  0.9646  1.1102  1.1102

 Free energy of the ion-electron system (eV)
  ---------------------------------------------------
  alpha Z        PSCENC =       231.00800727
  Ewald energy   TEWEN  =     -4318.13280520
  -Hartree energ DENC   =     -1412.74331280
  -exchange      EXHF   =         0.00000000
  -V(xc)+E(xc)   XCENC  =       178.17319733
  PAW double counting   =      5180.76170285    -5610.46520610
  entropy T*S    EENTRO =        -0.00808467
  eigenvalues    EBANDS =       172.83463361
  atomic energy  EATOM  =      5563.75431560
  Solvation  Ediel_sol  =         0.00000000
  ---------------------------------------------------
  free energy    TOTEN  =       -14.81755210 eV

  energy without entropy =      -14.80946743  energy(sigma->0) =      -14.81350977


--------------------------------------------------------------------------------------------------------




--------------------------------------- Iteration      1(  12)  ---------------------------------------


    POTLOK:  cpu time    0.0114: real time    0.0114
    SETDIJ:  cpu time    0.0025: real time    0.0025
    EDDIAG:  cpu time    0.0290: real time    0.0290
  RMM-DIIS:  cpu time    0.0735: real time    0.0735
    ORTHCH:  cpu time    0.0023: real time    0.0023
       DOS:  cpu time    0.0004: real time    0.0004
    --------------------------------------------
      LOOP:  cpu time    0.1191: real time    0.1191

 eigenvalue-minimisations  :   440
 total energy-change (2. order) : 0.6598826E-05  (-0.6131487E-05)
 number of electron      44.0000358 magnetization 
 augmentation part       28.0919844 magnetization 

 Free energy of the ion-electron system (eV)
  ---------------------------------------------------
  alpha Z        PSCENC =       231.00800727
  Ewald energy   TEWEN  =     -4318.13280520
  -Hartree energ DENC   =     -1412.57935390
  -exchange      EXHF   =         0.00000000
  -V(xc)+E(xc)   XCENC  =       178.16521734
  PAW double counting   =      5180.64855915    -5610.34155320
  entropy T*S    EENTRO =        -0.00796839
  eigenvalues    EBANDS =       172.66803582
  atomic energy  EATOM  =      5563.75431560
  Solvation  Ediel_sol  =         0.00000000
  ---------------------------------------------------
  free energy    TOTEN  =       -14.81754550 eV

  energy without entropy =      -14.80957711  energy(sigma->0) =      -14.81356131


--------------------------------------------------------------------------------------------------------




 average (electrostatic) potential at core
  the test charge radii are     0.9430
  (the norm of the test charge is              1.0000)
       1 -64.3704       2 -64.3704       3 -64.3704       4 -64.3704
 
 
 
 E-fermi :   6.5375     XC(G=0): -12.3244     alpha+bet :-12.5200


 k-point     1 :       0.0833    0.0833    0.0833
  band No.  band energies     occupation 
      1      -1.8412      2.00000
      2       2.3442      2.00000
      3       2.3442      2.00000
      4       2.3442      2.00000
      5       2.7472      2.00000
      6       2.7472      2.00000
      7       2.7472      2.00000
      8       3.8888      2.00000
      9       3.9773      2.00000
     10       3.9773      2.00000
     11       4.6636      2.00000
     12       4.6636      2.00000
     13       5.0443      2.00000
     14       5.0443      2.00000
     15       5.0443      2.00000
     16       5.0974      2.00000
     17       5.0974      2.00000
     18       5.0974      2.00000
     19       5.2761      2.00000
     20       5.2761      2.00000
     21       5.2761      2.00000
     22       8.1614      0.00000
     23       8.1614      0.00000
     24       8.1614      0.00000
     25      14.1606      0.00000
     26      14.1606      0.00000

 k-point     2 :       0.2500    0.0833    0.0833
  band No.  band energies     occupation 
      1      -1.2139      2.00000
      2       2.2334      2.00000
      3       2.6023      2.00000
      4       2.6023      2.00000
      5       2.8962      2.00000
      6       2.9106      2.00000
      7       2.9106      2.00000
      8       3.7399      2.00000
      9       4.0914      2.00000
     10       4.0956      2.00000
     11       4.4099      2.00000
     12       4.4099      2.00000
     13       4.5339      2.00000
     14       4.6848      2.00000
     15       4.7421      2.00000
     16       4.9186      2.00000
     17       4.9290      2.00000
     18       4.9290      2.00000
     19       5.1810      2.00000
     20       5.2587      2.00000
     21       5.2587      2.00000
     22       6.0903      2.00000
     23       9.2876      0.00000
     24       9.2876      0.00000
     25      14.5222      0.00000
     26      14.5224      0.00000

 k-point     3 :       0.4167    0.0833    0.0833
  band No.  band energies     occupation 
      1      -0.0314      2.00000
      2       1.4091      2.00000
      3       2.9401      2.00000
      4       2.9401      2.00000
      5       3.1591      2.00000
      6       3.2263      2.00000
      7       3.2263      2.00000
      8       3.4683      2.00000
      9       3.7467      2.00000
     10       3.7467      2.00000
     11       4.1692      2.00000
     12       4.1815      2.00000
     13       4.3242      2.00000
     14       4.5313      2.00000
     15       4.6240      2.00000
     16       4.6853      2.00000
     17       4.6853      2.00000
     18       4.8795      2.00000
     19       4.9697      2.00000
     20       5.0373      2.00000
     21       5.2520      2.00000
     22       5.2520      2.00000
     23      10.9061      0.00000
     24      10.9061      0.00000
     25      12.8942      0.00000
     26      12.8942      0.00000

 k-point     4 :       0.2500    0.2500    0.0833
  band No.  band energies     occupation 
      1      -0.6117      2.00000
      2       2.5407      2.00000
      3       2.5407      2.00000
      4       2.7970      2.00000
      5       3.0273      2.00000
      6       3.0402      2.00000
      7       3.0402      2.00000
      8       3.6865      2.00000
      9       4.0723      2.00000
     10       4.0723      2.00000
     11       4.0906      2.00000
     12       4.1396      2.00000
     13       4.1516      2.00000
     14       4.5347      2.00000
     15       4.7537      2.00000
     16       4.8028      2.00000
     17       4.8028      2.00000
     18       4.8170      2.00000
     19       5.1402      2.00000
     20       5.1402      2.00000
     21       5.1606      2.00000
     22       7.0332      0.00000
     23       7.0332      0.00000
     24      10.1594      0.00000
     25      12.3749      0.00000
     26      14.9543      0.00000

 k-point     5 :       0.4167    0.2500    0.0833
  band No.  band energies     occupation 
      1       0.5071      2.00000
      2       1.8252      2.00000
      3       2.9576      2.00000
      4       3.0596      2.00000
      5       3.1844      2.00000
      6       3.2656      2.00000
      7       3.2800      2.00000
      8       3.5085      2.00000
      9       3.5926      2.00000
     10       3.7538      2.00000
     11       3.8748      2.00000
     12       4.0210      2.00000
     13       4.2869      2.00000
     14       4.5299      2.00000
     15       4.5786      2.00000
     16       4.5965      2.00000
     17       4.6212      2.00000
     18       4.9124      2.00000
     19       5.0807      2.00000
     20       5.0816      2.00000
     21       5.0881      2.00000
     22       5.6116      2.00000
     23       8.3132      0.00000
     24       9.9665      0.00000
     25      11.7834      0.00000
     26      13.6223      0.00000

 k-point     6 :       0.4167    0.4167    0.0833
  band No.  band energies     occupation 
      1       1.4508      2.00000
      2       2.4290      2.00000
      3       2.4290      2.00000
      4       2.8519      2.00000
      5       3.4551      2.00000
      6       3.4752      2.00000
      7       3.4752      2.00000
      8       3.5333      2.00000
      9       3.6567      2.00000
     10       3.6567      2.00000
     11       3.6868      2.00000
     12       3.8986      2.00000
     13       4.2704      2.00000
     14       4.4129      2.00000
     15       4.4167      2.00000
     16       4.4167      2.00000
     17       4.6014      2.00000
     18       4.8276      2.00000
     19       4.8276      2.00000
     20       4.9034      2.00000
     21       5.5609      2.00000
     22       6.4744      1.92569
     23       6.4744      1.92569
     24       7.8475      0.00000
     25      13.1092      0.00000
     26      14.9483      0.00000

 k-point     7 :       0.2500    0.2500    0.2500
  band No.  band energies     occupation 
      1      -0.0531      2.00000
      2       2.6639      2.00000
      3       2.6639      2.00000
      4       2.6639      2.00000
      5       3.1962      2.00000
      6       3.1962      2.00000
      7       3.1962      2.00000
      8       3.7146      2.00000
      9       3.9630      2.00000
     10       3.9630      2.00000
     11       3.9630      2.00000
     12       4.0768      2.00000
     13       4.0768      2.00000
     14       4.5125      2.00000
     15       4.5125      2.00000
     16       4.5125      2.00000
     17       4.7513      2.00000
     18       4.7513      2.00000
     19       5.2208      2.00000
     20       5.2208      2.00000
     21       5.2208      2.00000
     22       7.6350      0.00000
     23       7.6350      0.00000
     24       7.6350      0.00000
     25      13.1131      0.00000
     26      13.1131      0.00000

 k-point     8 :       0.4167    0.2500    0.2500
  band No.  band energies     occupation 
      1       0.9480      2.00000
      2       2.0379      2.00000
      3       2.7555      2.00000
      4       2.7555      2.00000
      5       3.3992      2.00000
      6       3.3992      2.00000
      7       3.4804      2.00000
      8       3.6723      2.00000
      9       3.8676      2.00000
     10       3.8793      2.00000
     11       3.8793      2.00000
     12       3.9952      2.00000
     13       4.1113      2.00000
     14       4.2677      2.00000
     15       4.3676      2.00000
     16       4.3676      2.00000
     17       4.9211      2.00000
     18       4.9920      2.00000
     19       5.1531      2.00000
     20       5.1531      2.00000
     21       5.1668      2.00000
     22       5.7967      2.00000
     23       8.5547      0.00000
     24       8.5547      0.00000
     25      11.0786      0.00000
     26      11.0786      0.00000

 k-point     9 :       0.4167    0.4167    0.2500
  band No.  band energies     occupation 
      1       1.6405      2.00000
      2       2.2812      2.00000
      3       2.2812      2.00000
      4       2.5051      2.00000
      5       3.6316      2.00000
      6       3.7192      2.00000
      7       3.7192      2.00000
      8       3.9338      2.00000
      9       3.9740      2.00000
     10       3.9948      2.00000
     11       3.9948      2.00000
     12       4.0424      2.00000
     13       4.1079      2.00000
     14       4.1582      2.00000
     15       4.1582      2.00000
     16       4.1689      2.00000
     17       4.8983      2.00000
     18       5.0903      2.00000
     19       5.0903      2.00000
     20       5.0974      2.00000
     21       5.4068      2.00000
     22       6.5012      1.69508
     23       6.5012      1.69508
     24       7.7385      0.00000
     25      10.7517      0.00000
     26      12.2076      0.00000

 k-point    10 :       0.4167    0.4167    0.4167
  band No.  band energies     occupation 
      1       1.8901      2.00000
      2       2.1667      2.00000
      3       2.1667      2.00000
      4       2.1667      2.00000
      5       3.8340      2.00000
      6       3.8340      2.00000
      7       3.8340      2.00000
      8       3.9379      2.00000
      9       3.9379      2.00000
     10       3.9852      2.00000
     11       3.9852      2.00000
     12       3.9852      2.00000
     13       4.6133      2.00000
     14       4.6133      2.00000
     15       4.6133      2.00000
     16       4.9689      2.00000
     17       5.1179      2.00000
     18       5.1179      2.00000
     19       5.1892      2.00000
     20       5.1892      2.00000
     21       5.1892      2.00000
     22       6.5484      0.75847
     23       6.5484      0.75847
     24       6.5484      0.75847
     25      10.4703      0.00000
     26      10.4703      0.00000


--------------------------------------------------------------------------------------------------------


 soft charge-density along one line, spin component           1
         0         1         2         3         4         5         6         7         8         9
 total charge-density along one line
 
 pseudopotential strength for first ion, spin component:           1
 -3.395  -0.000  -0.000   0.000  -0.000  -4.347   0.000   0.000
 -0.000  -3.395   0.000   0.000  -0.000   0.000  -4.347  -0.000
 -0.000   0.000  -3.379  -0.000   0.000   0.000  -0.000  -4.358
  0.000   0.000  -0.000  -3.395  -0.000  -0.000  -0.000   0.000
 -0.000  -0.000   0.000  -0.000  -3.379   0.000   0.000  -0.000
 -4.347   0.000   0.000  -0.000   0.000  10.026  -0.000  -0.000
  0.000  -4.347  -0.000  -0.000   0.000  -0.000  10.026   0.000
  0.000  -0.000  -4.358   0.000  -0.000  -0.000   0.000  10.035
 -0.000  -0.000   0.000  -4.347   0.000   0.000   0.000  -0.000
  0.000   0.000  -0.000   0.000  -4.358  -0.000  -0.000   0.000
 -0.000  -0.000   0.000   0.000   0.000  -0.000  -0.000   0.000
 -0.000  -0.000   0.000   0.000   0.000  -0.000  -0.000   0.000
  0.000  -0.000   0.000   0.000   0.000  -0.000   0.000   0.000
  0.000  -0.000  -0.000   0.000  -0.000   0.000   0.000   0.000
 -0.000   0.000  -0.000  -0.000   0.000  -0.000   0.000   0.000
  0.000  -0.000   0.000  -0.000   0.000  -0.000   0.000   0.000
 -0.000  -0.000  -0.000   0.000   0.000   0.000  -0.000   0.000
 -0.000  -0.000  -0.000  -0.000   0.000  -0.000   0.000   0.000
 total augmentation occupancy for first ion, spin component:           1
  1.906   0.000   0.000   0.000  -0.000  -0.018   0.000  -0.000  -0.000  -0.000   0.000  -0.000   0.000   0.000  -0.000   0.000
 -0.000   1.906   0.000   0.000  -0.000  -0.000  -0.018  -0.000  -0.000   0.000   0.000  -0.000   0.000   0.000   0.000   0.000
  0.000   0.000   1.926   0.000   0.000  -0.000  -0.000  -0.035  -0.000   0.000  -0.000  -0.000   0.000  -0.000   0.000  -0.000
  0.000   0.000   0.000   1.906   0.000  -0.000  -0.000  -0.000  -0.018  -0.000   0.000  -0.000  -0.000  -0.000  -0.000   0.000
 -0.000   0.000  -0.000   0.000   1.926  -0.000  -0.000  -0.000   0.000  -0.035   0.000   0.000   0.000   0.000   0.000   0.000
 -0.018  -0.000   0.000  -0.000  -0.000   0.014   0.000  -0.000  -0.000   0.000   0.000  -0.000  -0.000   0.000   0.000   0.000
  0.000  -0.018  -0.000  -0.000  -0.000  -0.000   0.014  -0.000  -0.000  -0.000   0.000  -0.000   0.000  -0.000   0.000  -0.000
 -0.000   0.000  -0.035   0.000   0.000   0.000   0.000   0.014  -0.000   0.000   0.000   0.000   0.000   0.000   0.000  -0.000
 -0.000  -0.000  -0.000  -0.018  -0.000  -0.000  -0.000  -0.000   0.014   0.000  -0.000   0.000   0.000   0.000  -0.000   0.000
 -0.000   0.000  -0.000  -0.000  -0.035  -0.000  -0.000   0.000   0.000   0.014  -0.000  -0.000   0.000  -0.000   0.000  -0.000
  0.000   0.000   0.000   0.000  -0.000  -0.000  -0.000   0.000  -0.000   0.000   1.686  -0.155   0.000   0.000   0.000   0.000
  0.000  -0.000  -0.000  -0.000  -0.000  -0.000   0.000   0.000   0.000  -0.000  -0.155   0.019   0.000   0.000   0.000   0.000
  0.000   0.000  -0.000  -0.000  -0.000  -0.000   0.000   0.000   0.000   0.000   0.000   0.000   0.209   0.000   0.000  -0.014
  0.000   0.000   0.000  -0.000   0.000   0.000  -0.000  -0.000   0.000   0.000   0.000   0.000   0.000   0.209   0.000   0.000
 -0.000   0.000  -0.000  -0.000   0.000   0.000   0.000   0.000  -0.000   0.000   0.000   0.000  -0.000  -0.000   0.209   0.000
  0.000   0.000  -0.000   0.000   0.000   0.000  -0.000  -0.000   0.000   0.000   0.000   0.000  -0.014   0.000   0.000   0.001
  0.000   0.000   0.000   0.000  -0.000  -0.000   0.000  -0.000   0.000   0.000   0.000   0.000  -0.000  -0.014  -0.000  -0.000
  0.000  -0.000  -0.000  -0.000   0.000   0.000  -0.000   0.000   0.000  -0.000   0.000   0.000   0.000   0.000  -0.014  -0.000


------------------------ aborting loop because EDIFF is reached ----------------------------------------


    CHARGE:  cpu time    0.0149: real time    0.0149
    FORLOC:  cpu time    0.0010: real time    0.0010
    FORNL :  cpu time    0.0277: real time    0.0277
    STRESS:  cpu time    0.0490: real time    0.0490
    FORCOR:  cpu time    0.0121: real time    0.0121
    FORHAR:  cpu time    0.0029: real time    0.0029
    MIXING:  cpu time    0.0006: real time    0.0006
    OFIELD:  cpu time    0.0000: real time    0.0000

  FORCE on cell =-STRESS in cart. coord.  units (eV):
  Direction    XX          YY          ZZ          XY          YZ          ZX
  --------------------------------------------------------------------------------------
  Alpha Z   231.00801   231.00801   231.00801
  Ewald   -1439.37823 -1439.37823 -1439.37823    -0.00000     0.00000     0.00000
  Hartree   470.90364   470.90364   470.90364    -0.00000    -0.00000    -0.00000
  E(xc)    -256.88546  -256.88546  -256.88546     0.00000     0.00000    -0.00000
  Local     344.11307   344.11307   344.11307    -0.00000    -0.00000    -0.00000
  n-local   -83.81843   -91.27241   -93.34614     0.35663     2.69838     1.52445
  augment   379.06649   379.06649   379.06649     0.00000    -0.00000    -0.00000
  Kinetic   364.84469   357.54158   351.68648    -3.67077    -0.21951    -1.23483
  Fock        0.00000     0.00000     0.00000     0.00000     0.00000     0.00000
  -------------------------------------------------------------------------------------
  Total      -2.62723    -2.62723    -2.62723    -0.00000    -0.00000    -0.00000
  in kB     -83.10049   -83.10049   -83.10049    -0.00000    -0.00000    -0.00000
  external pressure =      -83.10 kB  Pullay stress =        0.00 kB


 VOLUME and BASIS-vectors are now :
 -----------------------------------------------------------------------------
  energy-cutoff  :      300.00
  volume of cell :       50.65
      direct lattice vectors                 reciprocal lattice vectors
     3.700000000  0.000000000  0.000000000     0.270270270  0.000000000  0.000000000
     0.000000000  3.700000000  0.000000000     0.000000000  0.270270270  0.000000000
     0.000000000  0.000000000  3.700000000     0.000000000  0.000000000  0.270270270

  length of vectors
     3.700000000  3.700000000  3.700000000     0.270270270  0.270270270  0.270270270


 FORCES acting on ions
    electron-ion (+dipol)            ewald-force                    non-local-force                 convergence-correction
 -----------------------------------------------------------------------------------------------
   -.349E-13 -.800E-13 -.898E-13   0.831E-14 0.116E-13 0.522E-14   0.529E-22 -.132E-22 0.529E-22   0.296E-13 0.800E-14 -.535E-13
   -.337E-13 0.665E-12 0.670E-12   0.850E-14 -.196E-13 0.455E-14   0.106E-21 0.000E+00 0.000E+00   0.301E-13 0.391E-13 -.190E-13
   0.712E-12 -.732E-13 -.511E-11   -.811E-14 0.190E-13 0.475E-14   0.265E-22 -.344E-21 0.000E+00   -.390E-13 -.637E-14 0.719E-14
   0.712E-12 -.333E-11 -.486E-11   -.792E-14 -.121E-13 -.174E-13   -.159E-21 0.000E+00 0.529E-22   -.536E-13 0.135E-13 -.709E-13
 -----------------------------------------------------------------------------------------------
   0.136E-11 -.282E-11 -.939E-11   0.787E-15 -.110E-14 -.290E-14   0.265E-22 -.357E-21 0.106E-21   -.329E-13 0.542E-13 -.136E-12
 
 
 POSITION                                       TOTAL-FORCE (eV/Angst)
 -----------------------------------------------------------------------------------
      0.00000      0.00000      0.00000        -0.000000     -0.000000      0.000000
      0.00000      1.85000      1.85000         0.000000      0.000000     -0.000000
      1.85000      0.00000      1.85000         0.000000      0.000000      0.000000
      1.85000      1.85000      0.00000        -0.000000     -0.000000     -0.000000
 -----------------------------------------------------------------------------------
    total drift:                                0.000000     -0.000000     -0.000000


--------------------------------------------------------------------------------------------------------



  FREE ENERGIE OF THE ION-ELECTRON SYSTEM (eV)
  ---------------------------------------------------
  free  energy   TOTEN  =       -14.81754550 eV

  energy  without entropy=      -14.80957711  energy(sigma->0) =      -14.81356131
 


--------------------------------------------------------------------------------------------------------


    POTLOK:  cpu time    0.0140: real time    0.0140


--------------------------------------------------------------------------------------------------------


     LOOP+:  cpu time    2.0166: real time    2.0543
    4ORBIT:  cpu time    0.0000: real time    0.0000

 total amount of memory used by VASP MPI-rank0    34009. kBytes
=======================================================================

   base      :      30000. kBytes
   nonl-proj :        457. kBytes
   fftplans  :       1169. kBytes
   grid      :       1645. kBytes
   one-center:         31. kBytes
   wavefun   :        707. kBytes
 
  
  
 General timing and accounting informations for this job:
 ========================================================
  
                  Total CPU time used (sec):        2.767
                            User time (sec):        2.542
                          System time (sec):        0.225
                         Elapsed time (sec):        3.430
  
                   Maximum memory used (kb):      163496.
                   Average memory used (kb):           0.
  
                          Minor page faults:        29548
                          Major page faults:            0
                 Voluntary context switches:         1125
