Attempting to create directory /home/ankit/perl5
 running on    4 total cores
 distrk:  each k-point on    4 cores,    1 groups
 distr:  one band on    2 cores,    2 groups
 using from now: INCAR     
 vasp.5.4.4.18Apr17-6-g9f103f2a35 (build Jan 01 2020 16:14:11) complex          
  
 POSCAR found :  1 types and       4 ions
 scaLAPACK will be used
 LDA part: xc-table for Pade appr. of Perdew
 POSCAR, INCAR and KPOINTS ok, starting setup
 FFT: planning ...
 WAVECAR not read
 entering main loop
       N       E                     dE             d eps       ncg     rms          rms(c)
DAV:   1     0.281238500390E+03    0.28124E+03   -0.14197E+04   520   0.191E+03
DAV:   2     0.184448680810E+01   -0.27939E+03   -0.27393E+03   520   0.370E+02
DAV:   3    -0.179696653395E+02   -0.19814E+02   -0.18879E+02   564   0.145E+02
DAV:   4    -0.183265892404E+02   -0.35692E+00   -0.35641E+00   578   0.246E+01
DAV:   5    -0.183321731438E+02   -0.55839E-02   -0.55836E-02   660   0.269E+00    0.151E+01
RMM:   6    -0.164408400166E+02    0.18913E+01   -0.42713E+01   535   0.995E+01    0.867E+00
RMM:   7    -0.148486231288E+02    0.15922E+01   -0.78105E+00   527   0.461E+01    0.110E+00
RMM:   8    -0.148214031665E+02    0.27220E-01   -0.38327E-02   544   0.274E+00    0.488E-01
RMM:   9    -0.148174571130E+02    0.39461E-02   -0.12920E-02   554   0.123E+00    0.756E-02
RMM:  10    -0.148175374402E+02   -0.80327E-04   -0.94469E-04   567   0.290E-01    0.373E-02
RMM:  11    -0.148175521016E+02   -0.14661E-04   -0.30696E-04   538   0.263E-01    0.268E-02
RMM:  12    -0.148175455028E+02    0.65988E-05   -0.61315E-05   440   0.117E-01
   1 F= -.14817546E+02 E0= -.14813561E+02  d E =-.796839E-02
