   4   4   0   0
  0.1071875E+02  0.3500000E-09  0.3500000E-09  0.3500000E-09  0.5000000E-15
  1.000000000000000E-004
  CAR 
 unknown system                          
     19.24020633     -1.96079926  301      8.62923063      1.00000000
     -1.961  0.0000E+00  0.0000E+00
     -1.890  0.0000E+00  0.0000E+00
     -1.819  0.0000E+00  0.0000E+00
     -1.749  0.0000E+00  0.0000E+00
     -1.678  0.0000E+00  0.0000E+00
     -1.607  0.0000E+00  0.0000E+00
     -1.537  0.0000E+00  0.0000E+00
     -1.466  0.0000E+00  0.0000E+00
     -1.395  0.0000E+00  0.0000E+00
     -1.325  0.0000E+00  0.0000E+00
     -1.254  0.1904E-12  0.1346E-13
     -1.183  0.7162E-07  0.5061E-08
     -1.113  0.5619E-03  0.3971E-04
     -1.042  0.1060E+00  0.7532E-02
     -0.971  0.6967E+00  0.5677E-01
     -0.901  0.2415E+00  0.7384E-01
     -0.830  0.3362E-02  0.7407E-01
     -0.759  0.1209E-05  0.7407E-01
     -0.689  0.9304E-11  0.7407E-01
     -0.618  0.0000E+00  0.7407E-01
     -0.547  0.1008E-11  0.7407E-01
     -0.477  0.3261E-06  0.7407E-01
     -0.406  0.2208E-02  0.7423E-01
     -0.335  0.3628E+00  0.9987E-01
     -0.265  0.2117E+01  0.2495E+00
     -0.194  0.6546E+00  0.2957E+00
     -0.123  0.7962E-02  0.2963E+00
     -0.053  0.2474E-05  0.2963E+00
      0.018  0.1639E-10  0.2963E+00
      0.089  0.3491E-15  0.2963E+00
      0.159  0.9813E-09  0.2963E+00
      0.230  0.4476E-04  0.2963E+00
      0.301  0.4520E-01  0.2995E+00
      0.371  0.1293E+01  0.3909E+00
      0.442  0.1696E+01  0.5107E+00
      0.513  0.1100E+00  0.5185E+00
      0.583  0.2184E-03  0.5185E+00
      0.654  0.9887E-08  0.5185E+00
      0.725  0.3264E-13  0.5185E+00
      0.795  0.1567E-07  0.5185E+00
      0.866  0.2316E-03  0.5185E+00
      0.937  0.9843E-01  0.5255E+00
      1.007  0.1827E+01  0.6546E+00
      1.078  0.2124E+01  0.8047E+00
      1.149  0.1432E+00  0.8148E+00
      1.219  0.3267E-03  0.8148E+00
      1.290  0.1764E-07  0.8148E+00
      1.361  0.6047E-11  0.8148E+00
      1.431  0.1452E-05  0.8148E+00
      1.502  0.7371E-02  0.8153E+00
      1.573  0.9251E+00  0.8807E+00
      1.643  0.4289E+01  0.1184E+01
      1.714  0.1058E+01  0.1259E+01
      1.785  0.9866E-02  0.1259E+01
      1.855  0.2302E-05  0.1259E+01
      1.926  0.3791E-04  0.1259E+01
      1.997  0.4106E-01  0.1262E+01
      2.067  0.1251E+01  0.1351E+01
      2.138  0.1733E+01  0.1473E+01
      2.209  0.1194E+00  0.1481E+01
      2.279  0.2541E-03  0.1481E+01
      2.350  0.2244E-07  0.1481E+01
      2.421  0.2213E-03  0.1481E+01
      2.491  0.1109E+00  0.1489E+01
      2.562  0.1768E+01  0.1614E+01
      2.633  0.2772E+01  0.1810E+01
      2.703  0.1579E+01  0.1922E+01
      2.774  0.9288E+00  0.1987E+01
      2.845  0.2024E+01  0.2130E+01
      2.915  0.2652E+00  0.2149E+01
      2.986  0.1375E+01  0.2246E+01
      3.057  0.4975E+01  0.2598E+01
      3.127  0.9738E+00  0.2667E+01
      3.198  0.6069E+00  0.2710E+01
      3.269  0.2418E+01  0.2880E+01
      3.339  0.3316E+01  0.3115E+01
      3.410  0.3630E+01  0.3371E+01
      3.481  0.5864E+01  0.3786E+01
      3.551  0.2948E+01  0.3994E+01
      3.622  0.4629E+00  0.4027E+01
      3.693  0.5958E+01  0.4448E+01
      3.763  0.1175E+02  0.5278E+01
      3.834  0.4097E+01  0.5568E+01
      3.905  0.2532E+01  0.5746E+01
      3.975  0.4638E+01  0.6074E+01
      4.046  0.7123E+01  0.6578E+01
      4.117  0.4274E+01  0.6880E+01
      4.187  0.1295E+02  0.7795E+01
      4.258  0.8501E+01  0.8396E+01
      4.329  0.8045E+01  0.8964E+01
      4.400  0.7440E+01  0.9490E+01
      4.470  0.5381E+01  0.9870E+01
      4.541  0.9332E+01  0.1053E+02
      4.612  0.1058E+02  0.1128E+02
      4.682  0.6874E+01  0.1176E+02
      4.753  0.3412E+01  0.1200E+02
      4.824  0.5633E+01  0.1240E+02
      4.894  0.1160E+02  0.1322E+02
      4.965  0.9408E+01  0.1389E+02
      5.036  0.5645E+01  0.1429E+02
      5.106  0.9894E+01  0.1499E+02
      5.177  0.1467E+02  0.1602E+02
      5.248  0.1539E+02  0.1711E+02
      5.318  0.5300E+01  0.1748E+02
      5.389  0.1014E+02  0.1820E+02
      5.460  0.1381E+02  0.1918E+02
      5.530  0.1495E+02  0.2023E+02
      5.601  0.1487E+02  0.2128E+02
      5.672  0.1586E+02  0.2240E+02
      5.742  0.1728E+02  0.2363E+02
      5.813  0.1420E+02  0.2463E+02
      5.884  0.4607E+01  0.2496E+02
      5.954  0.9027E+01  0.2559E+02
      6.025  0.8131E+01  0.2617E+02
      6.096  0.1270E+02  0.2707E+02
      6.166  0.6025E+01  0.2749E+02
      6.237  0.8570E+01  0.2810E+02
      6.308  0.1828E+02  0.2939E+02
      6.378  0.1690E+02  0.3058E+02
      6.449  0.1084E+02  0.3135E+02
      6.520  0.7304E+01  0.3187E+02
      6.590  0.9718E+01  0.3255E+02
      6.661  0.1107E+02  0.3334E+02
      6.732  0.1341E+02  0.3428E+02
      6.802  0.1653E+02  0.3545E+02
      6.873  0.6547E+01  0.3591E+02
      6.944  0.1265E+02  0.3681E+02
      7.014  0.2504E+02  0.3858E+02
      7.085  0.1876E+02  0.3990E+02
      7.156  0.1173E+02  0.4073E+02
      7.226  0.1184E+02  0.4157E+02
      7.297  0.3134E+01  0.4179E+02
      7.368  0.2023E+01  0.4193E+02
      7.438  0.9333E+00  0.4200E+02
      7.509  0.2946E+00  0.4202E+02
      7.580  0.3471E+01  0.4226E+02
      7.650  0.5026E+01  0.4262E+02
      7.721  0.7287E+00  0.4267E+02
      7.792  0.1510E+01  0.4278E+02
      7.862  0.1494E+01  0.4288E+02
      7.933  0.7076E-01  0.4289E+02
      8.004  0.6371E-01  0.4289E+02
      8.074  0.1446E+01  0.4300E+02
      8.145  0.1554E+01  0.4311E+02
      8.216  0.8048E-01  0.4311E+02
      8.286  0.1366E-03  0.4311E+02
      8.357  0.2160E-01  0.4311E+02
      8.428  0.9878E+00  0.4318E+02
      8.498  0.2070E+01  0.4333E+02
      8.569  0.3467E+01  0.4357E+02
      8.640  0.6892E+01  0.4406E+02
      8.710  0.2235E+01  0.4422E+02
      8.781  0.4953E-01  0.4422E+02
      8.852  0.3177E-04  0.4422E+02
      8.922  0.4462E-09  0.4422E+02
      8.993  0.5289E-08  0.4422E+02
      9.064  0.1776E-03  0.4422E+02
      9.134  0.1336E+00  0.4423E+02
      9.205  0.2937E+01  0.4444E+02
      9.276  0.3064E+01  0.4466E+02
      9.346  0.1535E+00  0.4467E+02
      9.417  0.2275E-03  0.4467E+02
      9.488  0.7589E-08  0.4467E+02
      9.558  0.5586E-14  0.4467E+02
      9.629  0.4960E-10  0.4467E+02
      9.700  0.6529E-05  0.4467E+02
      9.770  0.1866E-01  0.4467E+02
      9.841  0.1394E+01  0.4477E+02
      9.912  0.4198E+01  0.4506E+02
      9.982  0.6748E+00  0.4511E+02
     10.053  0.9449E-02  0.4511E+02
     10.124  0.5603E+00  0.4515E+02
     10.194  0.2348E+01  0.4532E+02
     10.265  0.2396E+01  0.4549E+02
     10.336  0.9591E+00  0.4555E+02
     10.406  0.1986E-01  0.4556E+02
     10.477  0.1138E-04  0.4556E+02
     10.548  0.2787E-02  0.4556E+02
     10.618  0.5790E+00  0.4560E+02
     10.689  0.4135E+01  0.4589E+02
     10.760  0.2014E+01  0.4603E+02
     10.830  0.4021E+01  0.4632E+02
     10.901  0.1792E+01  0.4644E+02
     10.972  0.3373E-01  0.4644E+02
     11.042  0.1686E-04  0.4644E+02
     11.113  0.1822E-09  0.4644E+02
     11.184  0.0000E+00  0.4644E+02
     11.254  0.0000E+00  0.4644E+02
     11.325  0.1396E-14  0.4644E+02
     11.396  0.2959E-08  0.4644E+02
     11.467  0.1190E-03  0.4644E+02
     11.537  0.1064E+00  0.4645E+02
     11.608  0.2731E+01  0.4664E+02
     11.679  0.3261E+01  0.4688E+02
     11.749  0.1903E+00  0.4689E+02
     11.820  0.3351E-03  0.4689E+02
     11.891  0.1338E-07  0.4689E+02
     11.961  0.1117E-13  0.4689E+02
     12.032  0.0000E+00  0.4689E+02
     12.103  0.0000E+00  0.4689E+02
     12.173  0.4888E-14  0.4689E+02
     12.244  0.7173E-08  0.4689E+02
     12.315  0.2189E-03  0.4689E+02
     12.385  0.1502E+00  0.4690E+02
     12.456  0.3045E+01  0.4711E+02
     12.527  0.2973E+01  0.4732E+02
     12.597  0.1009E+01  0.4740E+02
     12.668  0.2013E+01  0.4754E+02
     12.739  0.2420E+00  0.4756E+02
     12.809  0.9756E-03  0.4756E+02
     12.880  0.9302E-07  0.4756E+02
     12.951  0.1840E-12  0.4756E+02
     13.021  0.0000E+00  0.4756E+02
     13.092  0.0000E+00  0.4756E+02
     13.163  0.5449E-10  0.4756E+02
     13.233  0.5203E-05  0.4756E+02
     13.304  0.1074E-01  0.4756E+02
     13.375  0.5984E+00  0.4760E+02
     13.445  0.2497E+01  0.4778E+02
     13.516  0.4434E+01  0.4809E+02
     13.587  0.9224E+00  0.4815E+02
     13.657  0.1573E+01  0.4826E+02
     13.728  0.1433E+01  0.4837E+02
     13.799  0.6173E-01  0.4837E+02
     13.869  0.2997E-01  0.4837E+02
     13.940  0.1707E+01  0.4849E+02
     14.011  0.4049E+01  0.4878E+02
     14.081  0.5015E+00  0.4881E+02
     14.152  0.2092E-02  0.4881E+02
     14.223  0.2069E-06  0.4881E+02
     14.293  0.4256E-12  0.4881E+02
     14.364  0.2026E-08  0.4881E+02
     14.435  0.9151E-04  0.4881E+02
     14.505  0.9156E-01  0.4882E+02
     14.576  0.2597E+01  0.4900E+02
     14.647  0.3382E+01  0.4924E+02
     14.717  0.2176E+00  0.4926E+02
     14.788  0.4282E-03  0.4926E+02
     14.859  0.1919E-07  0.4926E+02
     14.929  0.1273E-10  0.4926E+02
     15.000  0.2203E-05  0.4926E+02
     15.071  0.8607E-02  0.4926E+02
     15.141  0.9310E+00  0.4933E+02
     15.212  0.4215E+01  0.4962E+02
     15.283  0.1122E+01  0.4970E+02
     15.353  0.1290E-01  0.4970E+02
     15.424  0.4186E-05  0.4970E+02
     15.495  0.3810E-10  0.4970E+02
     15.565  0.1650E-05  0.4970E+02
     15.636  0.7995E-02  0.4970E+02
     15.707  0.9607E+00  0.4977E+02
     15.777  0.4291E+01  0.5008E+02
     15.848  0.1020E+01  0.5015E+02
     15.919  0.9260E-02  0.5015E+02
     15.989  0.9862E-01  0.5016E+02
     16.060  0.2183E+01  0.5031E+02
     16.131  0.2742E+01  0.5050E+02
     16.201  0.2159E+00  0.5052E+02
     16.272  0.6920E-03  0.5052E+02
     16.343  0.5987E-07  0.5052E+02
     16.413  0.4231E-06  0.5052E+02
     16.484  0.3337E-02  0.5052E+02
     16.555  0.6330E+00  0.5056E+02
     16.625  0.4178E+01  0.5086E+02
     16.696  0.1455E+01  0.5096E+02
     16.767  0.2034E-01  0.5096E+02
     16.837  0.7354E-05  0.5096E+02
     16.908  0.5693E-10  0.5096E+02
     16.979  0.0000E+00  0.5096E+02
     17.049  0.0000E+00  0.5096E+02
     17.120  0.0000E+00  0.5096E+02
     17.191  0.6681E-10  0.5096E+02
     17.261  0.6013E-05  0.5096E+02
     17.332  0.1171E-01  0.5096E+02
     17.403  0.6072E+00  0.5101E+02
     17.473  0.1326E+01  0.5110E+02
     17.544  0.1514E+00  0.5111E+02
     17.615  0.3305E+00  0.5113E+02
     17.685  0.3739E+01  0.5140E+02
     17.756  0.2164E+01  0.5155E+02
     17.827  0.5510E-01  0.5156E+02
     17.897  0.3865E-04  0.5156E+02
     17.968  0.9764E-03  0.5156E+02
     18.039  0.2421E+00  0.5157E+02
     18.109  0.2013E+01  0.5172E+02
     18.180  0.8826E+00  0.5178E+02
     18.251  0.7404E+00  0.5183E+02
     18.321  0.2090E+01  0.5198E+02
     18.392  0.3181E+00  0.5200E+02
     18.463  0.1686E-02  0.5200E+02
     18.534  0.2148E-06  0.5200E+02
     18.604  0.5711E-12  0.5200E+02
     18.675  0.0000E+00  0.5200E+02
     18.746  0.0000E+00  0.5200E+02
     18.816  0.0000E+00  0.5200E+02
     18.887  0.0000E+00  0.5200E+02
     18.958  0.0000E+00  0.5200E+02
     19.028  0.0000E+00  0.5200E+02
     19.099  0.0000E+00  0.5200E+02
     19.170  0.0000E+00  0.5200E+02
     19.240  0.0000E+00  0.5200E+02
