    4    4    1    1
  0.1071875E+02  0.3500000E-09  0.3500000E-09  0.3500000E-09  0.5000000E-15
  1.000000000000000E-004
  CAR 
 unknown system                          
     44     10     26
 
  0.8333333E-01  0.8333333E-01  0.8333333E-01  0.3703704E-01
    1       -0.997117   1.000000
    2        3.442727   1.000000
    3        3.442727   1.000000
    4        3.442727   1.000000
    5        3.947081   1.000000
    6        3.947081   1.000000
    7        3.947081   1.000000
    8        5.423061   1.000000
    9        5.538382   1.000000
   10        5.538382   1.000000
   11        6.423373   1.000000
   12        6.423373   1.000000
   13        6.889539   1.000000
   14        6.889539   1.000000
   15        6.889539   1.000000
   16        6.982961   1.000000
   17        6.982961   1.000000
   18        6.982961   1.000000
   19        7.215520   1.000000
   20        7.215520   1.000000
   21        7.215520   1.000000
   22       10.247613   0.000000
   23       10.247613   0.000000
   24       10.247613   0.000000
   25       17.421812   0.000000
   26       17.421812   0.000000
 
  0.2500000E+00  0.8333333E-01  0.8333333E-01  0.1111111E+00
    1       -0.293144   1.000000
    2        3.360211   1.000000
    3        3.757825   1.000000
    4        3.757825   1.000000
    5        4.137090   1.000000
    6        4.155428   1.000000
    7        4.155428   1.000000
    8        5.228609   1.000000
    9        5.683570   1.000000
   10        5.690725   1.000000
   11        6.061237   1.000000
   12        6.061237   1.000000
   13        6.255446   1.000000
   14        6.420864   1.000000
   15        6.525125   1.000000
   16        6.748081   1.000000
   17        6.758512   1.000000
   18        6.758512   1.000000
   19        7.091339   1.000000
   20        7.191779   1.000000
   21        7.191779   1.000000
   22        8.076098   1.000000
   23       11.612178   0.000000
   24       11.612178   0.000000
   25       17.670870   0.000000
   26       17.673343   0.000000
 
  0.4166667E+00  0.8333333E-01  0.8333333E-01  0.1111111E+00
    1        1.017410   1.000000
    2        2.555335   1.000000
    3        4.170684   1.000000
    4        4.170684   1.000000
    5        4.474029   1.000000
    6        4.561233   1.000000
    7        4.561233   1.000000
    8        4.874127   1.000000
    9        5.220562   1.000000
   10        5.220562   1.000000
   11        5.779093   1.000000
   12        5.794883   1.000000
   13        5.981365   1.000000
   14        6.247211   1.000000
   15        6.366262   1.000000
   16        6.444509   1.000000
   17        6.444509   1.000000
   18        6.701374   1.000000
   19        6.800767   1.000000
   20        6.906079   1.000000
   21        7.183235   1.000000
   22        7.183235   1.000000
   23       13.476830   0.000000
   24       13.476830   0.000000
   25       15.742744   0.000000
   26       15.742744   0.000000
 
  0.2500000E+00  0.2500000E+00  0.8333333E-01  0.1111111E+00
    1        0.377946   1.000000
    2        3.725082   1.000000
    3        3.725082   1.000000
    4        4.008329   1.000000
    5        4.297583   1.000000
    6        4.319477   1.000000
    7        4.319477   1.000000
    8        5.154342   1.000000
    9        5.646282   1.000000
   10        5.646282   1.000000
   11        5.681468   1.000000
   12        5.730359   1.000000
   13        5.746494   1.000000
   14        6.254776   1.000000
   15        6.529859   1.000000
   16        6.593265   1.000000
   17        6.593265   1.000000
   18        6.620531   1.000000
   19        7.036644   1.000000
   20        7.036644   1.000000
   21        7.063159   1.000000
   22        9.206101   0.000000
   23        9.206101   0.000000
   24       12.617563   0.000000
   25       15.186609   0.000000
   26       18.276524   0.000000
 
  0.4166667E+00  0.2500000E+00  0.8333333E-01  0.2222222E+00
    1        1.609607   1.000000
    2        3.016325   1.000000
    3        4.229621   1.000000
    4        4.363694   1.000000
    5        4.479861   1.000000
    6        4.608252   1.000000
    7        4.619057   1.000000
    8        4.921002   1.000000
    9        5.034949   1.000000
   10        5.226136   1.000000
   11        5.397299   1.000000
   12        5.584607   1.000000
   13        5.933110   1.000000
   14        6.244455   1.000000
   15        6.304488   1.000000
   16        6.331602   1.000000
   17        6.357710   1.000000
   18        6.737090   1.000000
   19        6.958086   1.000000
   20        6.960800   1.000000
   21        6.969282   1.000000
   22        7.605529   1.000000
   23       10.665325   0.000000
   24       12.455172   0.000000
   25       14.582443   0.000000
   26       16.599818   0.000000
 
  0.4166667E+00  0.4166667E+00  0.8333333E-01  0.1111111E+00
    1        2.633351   1.000000
    2        3.678318   1.000000
    3        3.678318   1.000000
    4        4.138077   1.000000
    5        4.826578   1.000000
    6        4.867955   1.000000
    7        4.867955   1.000000
    8        4.949196   1.000000
    9        5.108697   1.000000
   10        5.108697   1.000000
   11        5.139554   1.000000
   12        5.419958   1.000000
   13        5.910305   1.000000
   14        6.091311   1.000000
   15        6.096174   1.000000
   16        6.096174   1.000000
   17        6.338523   1.000000
   18        6.630129   1.000000
   19        6.630129   1.000000
   20        6.728149   1.000000
   21        7.558238   1.000000
   22        8.624950   0.548187
   23        8.624950   0.548187
   24       10.156174   0.000000
   25       16.056982   0.000000
   26       18.089140   0.000000
 
  0.2500000E+00  0.2500000E+00  0.2500000E+00  0.3703704E-01
    1        0.991482   1.000000
    2        3.882336   1.000000
    3        3.882336   1.000000
    4        3.882336   1.000000
    5        4.504111   1.000000
    6        4.504111   1.000000
    7        4.504111   1.000000
    8        5.182956   1.000000
    9        5.505257   1.000000
   10        5.505257   1.000000
   11        5.505257   1.000000
   12        5.665194   1.000000
   13        5.665194   1.000000
   14        6.221319   1.000000
   15        6.221319   1.000000
   16        6.221319   1.000000
   17        6.535287   1.000000
   18        6.535287   1.000000
   19        7.143946   1.000000
   20        7.143946   1.000000
   21        7.143946   1.000000
   22        9.870254   0.000000
   23        9.870254   0.000000
   24        9.870254   0.000000
   25       16.079973   0.000000
   26       16.079973   0.000000
 
  0.4166667E+00  0.2500000E+00  0.2500000E+00  0.1111111E+00
    1        2.075355   1.000000
    2        3.228830   1.000000
    3        4.007011   1.000000
    4        4.007011   1.000000
    5        4.752891   1.000000
    6        4.752891   1.000000
    7        4.868814   1.000000
    8        5.122880   1.000000
    9        5.384148   1.000000
   10        5.384148   1.000000
   11        5.390443   1.000000
   12        5.555697   1.000000
   13        5.708879   1.000000
   14        5.907070   1.000000
   15        6.032516   1.000000
   16        6.032516   1.000000
   17        6.744952   1.000000
   18        6.847601   1.000000
   19        7.054600   1.000000
   20        7.054600   1.000000
   21        7.073651   1.000000
   22        7.791464   1.000000
   23       10.810943   0.000000
   24       10.810943   0.000000
   25       13.960959   0.000000
   26       13.960970   0.000000
 
  0.4166667E+00  0.4166667E+00  0.2500000E+00  0.1111111E+00
    1        2.795077   1.000000
    2        3.472902   1.000000
    3        3.472902   1.000000
    4        3.714467   1.000000
    5        5.060990   1.000000
    6        5.175579   1.000000
    7        5.175579   1.000000
    8        5.477678   1.000000
    9        5.478449   1.000000
   10        5.522470   1.000000
   11        5.522470   1.000000
   12        5.619295   1.000000
   13        5.650416   1.000000
   14        5.763095   1.000000
   15        5.763095   1.000000
   16        5.778422   1.000000
   17        6.724554   1.000000
   18        6.971518   1.000000
   19        6.971518   1.000000
   20        6.982183   1.000000
   21        7.349342   1.000000
   22        8.570446   0.951813
   23        8.570446   0.951813
   24        9.865563   0.000000
   25       13.655078   0.000000
   26       15.171279   0.000000
 
  0.4166667E+00  0.4166667E+00  0.4166667E+00  0.3703704E-01
    1        3.023261   1.000000
    2        3.317055   1.000000
    3        3.317055   1.000000
    4        3.317055   1.000000
    5        5.341548   1.000000
    6        5.341548   1.000000
    7        5.341548   1.000000
    8        5.486125   1.000000
    9        5.486125   1.000000
   10        5.543438   1.000000
   11        5.543438   1.000000
   12        5.543438   1.000000
   13        6.265494   1.000000
   14        6.265494   1.000000
   15        6.265494   1.000000
   16        6.577568   1.000000
   17        7.008827   1.000000
   18        7.008827   1.000000
   19        7.103430   1.000000
   20        7.103430   1.000000
   21        7.103430   1.000000
   22        8.444135   1.000000
   23        8.444135   1.000000
   24        8.444135   1.000000
   25       13.394698   0.000000
   26       13.394698   0.000000
