 vasp.5.4.4.18Apr17-6-g9f103f2a35 (build Jan 01 2020 16:14:11) complex          
  
 executed on             LinuxIFC date 2022.03.02  19:16:04
 running on    4 total cores
 distrk:  each k-point on    4 cores,    1 groups
 distr:  one band on NCORES_PER_BAND=   2 cores,    2 groups


--------------------------------------------------------------------------------------------------------


 INCAR:
 POTCAR:    PAW_PBE Cu 22Jun2005                  
 POTCAR:    PAW_PBE Cu 22Jun2005                  
   VRHFIN =Cu: d10 p1                                                           
   LEXCH  = PE                                                                  
   EATOM  =  1390.9808 eV,  102.2342 Ry                                         
                                                                                
   TITEL  = PAW_PBE Cu 22Jun2005                                                
   LULTRA =        F    use ultrasoft PP ?                                      
   IUNSCR =        1    unscreen: 0-lin 1-nonlin 2-no                           
   RPACOR =    2.000    partial core radius                                     
   POMASS =   63.546; ZVAL   =   11.000    mass and valenz                      
   RCORE  =    2.300    outmost cutoff radius                                   
   RWIGS  =    2.200; RWIGS  =    1.164    wigner-seitz radius (au A)           
   ENMAX  =  295.446; ENMIN  =  221.585 eV                                      
   ICORE  =        3    local potential                                         
   LCOR   =        T    correct aug charges                                     
   LPAW   =        T    paw PP                                                  
   EAUG   =  586.980                                                            
   DEXC   =    0.000                                                            
   RMAX   =    2.344    core radius for proj-oper                               
   RAUG   =    1.300    factor for augmentation sphere                          
   RDEP   =    2.302    radius for radial grids                                 
   RDEPT  =    1.771    core radius for aug-charge                              
                                                                                
   Atomic configuration                                                         
    9 entries                                                                   
     n  l   j            E        occ.                                          
     1  0  0.50     -8850.2468   2.0000                                         
     2  0  0.50     -1062.3498   2.0000                                         
     2  1  1.50      -916.8226   6.0000                                         
     3  0  0.50      -114.6929   2.0000                                         
     3  1  1.50       -72.1325   6.0000                                         
     3  2  2.50        -5.0394  10.0000                                         
     4  0  0.50        -4.6097   1.0000                                         
     4  1  0.50        -4.0817   0.0000                                         
     4  3  2.50        -1.3606   0.0000                                         
   Description                                                                  
     l       E           TYP  RCUT    TYP  RCUT                                 
     2     -5.0393973     23  2.200                                             
     2     10.8846608     23  2.200                                             
     0     -4.6097109     23  2.200                                             
     0      8.2520465     23  2.200                                             
     1     -2.7211652     23  2.200                                             
     1     21.7055443     23  2.200                                             
     3      2.7211652     23  2.300                                             
  local pseudopotential read in
  partial core-charges read in
  partial kinetic energy density read in
  atomic valenz-charges read in
  non local Contribution for L=           2  read in
    real space projection operators read in
  non local Contribution for L=           2  read in
    real space projection operators read in
  non local Contribution for L=           0  read in
    real space projection operators read in
  non local Contribution for L=           0  read in
    real space projection operators read in
  non local Contribution for L=           1  read in
    real space projection operators read in
  non local Contribution for L=           1  read in
    real space projection operators read in
    PAW grid and wavefunctions read in
 
   number of l-projection  operators is LMAX  =           6
   number of lm-projection operators is LMMAX =          18
 
  PAW_PBE Cu 22Jun2005                  :
 energy of atom  1       EATOM=-1390.9808
 kinetic energy error for atom=    0.0422 (will be added to EATOM!!)
 
 
 POSCAR: Cu                                      
  positions in cartesian coordinates
  No initial velocities read in
 exchange correlation table for  LEXCH =        8
   RHO(1)=    0.500       N(1)  =     2000
   RHO(2)=  100.500       N(2)  =     4000
 


--------------------------------------------------------------------------------------------------------


 ion  position               nearest neighbor table
   1  0.000  0.000  0.000-   2 2.47   3 2.47   4 2.47   2 2.47   3 2.47   2 2.47   4 2.47   2 2.47
                             3 2.47   4 2.47   3 2.47   4 2.47
   2  0.000  0.500  0.500-   1 2.47   3 2.47   4 2.47   1 2.47   4 2.47   1 2.47   3 2.47   1 2.47
                             3 2.47   4 2.47   4 2.47   3 2.47
   3  0.500  0.000  0.500-   1 2.47   2 2.47   4 2.47   1 2.47   4 2.47   2 2.47   4 2.47   4 2.47
                             1 2.47   2 2.47   1 2.47   2 2.47
   4  0.500  0.500  0.000-   1 2.47   2 2.47   3 2.47   2 2.47   3 2.47   1 2.47   3 2.47   3 2.47
                             1 2.47   2 2.47   2 2.47   1 2.47
 
  LATTYP: Found a simple cubic cell.
 ALAT       =     3.5000000000
  
  Lattice vectors:
  
 A1 = (   3.5000000000,   0.0000000000,   0.0000000000)
 A2 = (   0.0000000000,   3.5000000000,   0.0000000000)
 A3 = (   0.0000000000,   0.0000000000,   3.5000000000)


Analysis of symmetry for initial positions (statically):
=====================================================================
 Subroutine PRICEL returns following result:
 
  LATTYP: Found a face centered cubic cell.
 ALAT       =     3.5000000000
  
  Lattice vectors:
  
 A1 = (   1.7500000000,   1.7500000000,   0.0000000000)
 A2 = (   1.7500000000,   0.0000000000,  -1.7500000000)
 A3 = (   0.0000000000,   1.7500000000,  -1.7500000000)
 
   4 primitive cells build up your supercell.
 

 Routine SETGRP: Setting up the symmetry group for a 
 simple cubic supercell.


 Subroutine GETGRP returns: Found 48 space group operations
 (whereof 48 operations were pure point group operations)
 out of a pool of 48 trial point group operations.


The static configuration has the point symmetry O_h .


Analysis of symmetry for dynamics (positions and initial velocities):
=====================================================================
 Subroutine PRICEL returns following result:
 
  LATTYP: Found a face centered cubic cell.
 ALAT       =     3.5000000000
  
  Lattice vectors:
  
 A1 = (   1.7500000000,   1.7500000000,   0.0000000000)
 A2 = (   1.7500000000,   0.0000000000,  -1.7500000000)
 A3 = (   0.0000000000,   1.7500000000,  -1.7500000000)
 
   4 primitive cells build up your supercell.
 

 Routine SETGRP: Setting up the symmetry group for a 
 simple cubic supercell.


 Subroutine GETGRP returns: Found 48 space group operations
 (whereof 48 operations were pure point group operations)
 out of a pool of 48 trial point group operations.


The dynamic configuration has the point symmetry O_h .


 Subroutine INISYM returns: Found 48 space group operations
 (whereof 48 operations are pure point group operations),
 and found     4 'primitive' translations

 
 
 KPOINTS: KPOINTS created by Atomic Simulation Env

Automatic generation of k-mesh.
Space group operators:
 irot       det(A)        alpha          n_x          n_y          n_z        tau_x        tau_y        tau_z
    1     1.000000     0.000000     1.000000     0.000000     0.000000     0.000000     0.000000     0.000000
    2    -1.000000     0.000000     1.000000     0.000000     0.000000     0.000000     0.000000     0.000000
    3     1.000000   120.000000    -0.577350    -0.577350    -0.577350     0.000000     0.000000     0.000000
    4    -1.000000   120.000000    -0.577350    -0.577350    -0.577350     0.000000     0.000000     0.000000
    5     1.000000   120.000000     0.577350     0.577350     0.577350     0.000000     0.000000     0.000000
    6    -1.000000   120.000000     0.577350     0.577350     0.577350     0.000000     0.000000     0.000000
    7     1.000000    90.000000     0.000000     0.000000    -1.000000     0.000000     0.000000     0.000000
    8    -1.000000    90.000000     0.000000     0.000000    -1.000000     0.000000     0.000000     0.000000
    9     1.000000   180.000000     0.000000     0.707107     0.707107     0.000000     0.000000     0.000000
   10    -1.000000   180.000000     0.000000     0.707107     0.707107     0.000000     0.000000     0.000000
   11     1.000000    90.000000     0.000000     1.000000     0.000000     0.000000     0.000000     0.000000
   12    -1.000000    90.000000     0.000000     1.000000     0.000000     0.000000     0.000000     0.000000
   13     1.000000   180.000000     0.000000     0.000000     1.000000     0.000000     0.000000     0.000000
   14    -1.000000   180.000000     0.000000     0.000000     1.000000     0.000000     0.000000     0.000000
   15     1.000000   120.000000    -0.577350     0.577350     0.577350     0.000000     0.000000     0.000000
   16    -1.000000   120.000000    -0.577350     0.577350     0.577350     0.000000     0.000000     0.000000
   17     1.000000   120.000000    -0.577350     0.577350    -0.577350     0.000000     0.000000     0.000000
   18    -1.000000   120.000000    -0.577350     0.577350    -0.577350     0.000000     0.000000     0.000000
   19     1.000000    90.000000     0.000000     0.000000     1.000000     0.000000     0.000000     0.000000
   20    -1.000000    90.000000     0.000000     0.000000     1.000000     0.000000     0.000000     0.000000
   21     1.000000    90.000000    -1.000000     0.000000     0.000000     0.000000     0.000000     0.000000
   22    -1.000000    90.000000    -1.000000     0.000000     0.000000     0.000000     0.000000     0.000000
   23     1.000000   180.000000     0.707107     0.000000     0.707107     0.000000     0.000000     0.000000
   24    -1.000000   180.000000     0.707107     0.000000     0.707107     0.000000     0.000000     0.000000
   25     1.000000   120.000000     0.577350    -0.577350     0.577350     0.000000     0.000000     0.000000
   26    -1.000000   120.000000     0.577350    -0.577350     0.577350     0.000000     0.000000     0.000000
   27     1.000000   120.000000    -0.577350    -0.577350     0.577350     0.000000     0.000000     0.000000
   28    -1.000000   120.000000    -0.577350    -0.577350     0.577350     0.000000     0.000000     0.000000
   29     1.000000   180.000000     1.000000     0.000000     0.000000     0.000000     0.000000     0.000000
   30    -1.000000   180.000000     1.000000     0.000000     0.000000     0.000000     0.000000     0.000000
   31     1.000000    90.000000     0.000000    -1.000000     0.000000     0.000000     0.000000     0.000000
   32    -1.000000    90.000000     0.000000    -1.000000     0.000000     0.000000     0.000000     0.000000
   33     1.000000   180.000000     0.707107     0.707107     0.000000     0.000000     0.000000     0.000000
   34    -1.000000   180.000000     0.707107     0.707107     0.000000     0.000000     0.000000     0.000000
   35     1.000000    90.000000     1.000000     0.000000     0.000000     0.000000     0.000000     0.000000
   36    -1.000000    90.000000     1.000000     0.000000     0.000000     0.000000     0.000000     0.000000
   37     1.000000   120.000000     0.577350    -0.577350    -0.577350     0.000000     0.000000     0.000000
   38    -1.000000   120.000000     0.577350    -0.577350    -0.577350     0.000000     0.000000     0.000000
   39     1.000000   180.000000     0.000000     1.000000     0.000000     0.000000     0.000000     0.000000
   40    -1.000000   180.000000     0.000000     1.000000     0.000000     0.000000     0.000000     0.000000
   41     1.000000   120.000000     0.577350     0.577350    -0.577350     0.000000     0.000000     0.000000
   42    -1.000000   120.000000     0.577350     0.577350    -0.577350     0.000000     0.000000     0.000000
   43     1.000000   180.000000     0.000000    -0.707107     0.707107     0.000000     0.000000     0.000000
   44    -1.000000   180.000000     0.000000    -0.707107     0.707107     0.000000     0.000000     0.000000
   45     1.000000   180.000000     0.707107    -0.707107     0.000000     0.000000     0.000000     0.000000
   46    -1.000000   180.000000     0.707107    -0.707107     0.000000     0.000000     0.000000     0.000000
   47     1.000000   180.000000     0.707107     0.000000    -0.707107     0.000000     0.000000     0.000000
   48    -1.000000   180.000000     0.707107     0.000000    -0.707107     0.000000     0.000000     0.000000
 
 Subroutine IBZKPT returns following result:
 ===========================================
 
 Found     10 irreducible k-points:
 
 Following reciprocal coordinates:
            Coordinates               Weight
  0.083333  0.083333  0.083333      8.000000
  0.250000  0.083333  0.083333     24.000000
  0.416667  0.083333  0.083333     24.000000
  0.250000  0.250000  0.083333     24.000000
  0.416667  0.250000  0.083333     48.000000
  0.416667  0.416667  0.083333     24.000000
  0.250000  0.250000  0.250000      8.000000
  0.416667  0.250000  0.250000     24.000000
  0.416667  0.416667  0.250000     24.000000
  0.416667  0.416667  0.416667      8.000000
 
 Following cartesian coordinates:
            Coordinates               Weight
  0.023810  0.023810  0.023810      8.000000
  0.071429  0.023810  0.023810     24.000000
  0.119048  0.023810  0.023810     24.000000
  0.071429  0.071429  0.023810     24.000000
  0.119048  0.071429  0.023810     48.000000
  0.119048  0.119048  0.023810     24.000000
  0.071429  0.071429  0.071429      8.000000
  0.119048  0.071429  0.071429     24.000000
  0.119048  0.119048  0.071429     24.000000
  0.119048  0.119048  0.119048      8.000000
 


--------------------------------------------------------------------------------------------------------




 Dimension of arrays:
   k-points           NKPTS =     10   k-points in BZ     NKDIM =     10   number of bands    NBANDS=     26
   number of dos      NEDOS =    301   number of ions     NIONS =      4
   non local maximal  LDIM  =      6   non local SUM 2l+1 LMDIM =     18
   total plane-waves  NPLWV =   8000
   max r-space proj   IRMAX =      1   max aug-charges    IRDMAX=   5604
   dimension x,y,z NGX =    20 NGY =   20 NGZ =   20
   dimension x,y,z NGXF=    40 NGYF=   40 NGZF=   40
   support grid    NGXF=    40 NGYF=   40 NGZF=   40
   ions per type =               4
   NGX,Y,Z   is equivalent  to a cutoff of   9.50,  9.50,  9.50 a.u.
   NGXF,Y,Z  is equivalent  to a cutoff of  19.00, 19.00, 19.00 a.u.

 SYSTEM =  unknown system                          
 POSCAR =  Cu                                      

 Startparameter for this run:
   NWRITE =      2    write-flag & timer
   PREC   = accura    normal or accurate (medium, high low for compatibility)
   ISTART =      0    job   : 0-new  1-cont  2-samecut
   ICHARG =      2    charge: 1-file 2-atom 10-const
   ISPIN  =      1    spin polarized calculation?
   LNONCOLLINEAR =      F non collinear calculations
   LSORBIT =      F    spin-orbit coupling
   INIWAV =      1    electr: 0-lowe 1-rand  2-diag
   LASPH  =      F    aspherical Exc in radial PAW
   METAGGA=      F    non-selfconsistent MetaGGA calc.

 Electronic Relaxation 1
   ENCUT  =  300.0 eV  22.05 Ry    4.70 a.u.   4.94  4.94  4.94*2*pi/ulx,y,z
   ENINI  =  300.0     initial cutoff
   ENAUG  =  587.0 eV  augmentation charge cutoff
   NELM   =    100;   NELMIN=  4; NELMDL= -5     # of ELM steps 
   EDIFF  = 0.1E-04   stopping-criterion for ELM
   LREAL  =      F    real-space projection
   NLSPLINE    = F    spline interpolate recip. space projectors
   LCOMPAT=      F    compatible to vasp.4.4
   GGA_COMPAT  = T    GGA compatible to vasp.4.4-vasp.4.6
   LMAXPAW     = -100 max onsite density
   LMAXMIX     =    2 max onsite mixed and CHGCAR
   VOSKOWN=      0    Vosko Wilk Nusair interpolation
   ROPT   =    0.00000
 Ionic relaxation
   EDIFFG = 0.1E-03   stopping-criterion for IOM
   NSW    =      0    number of steps for IOM
   NBLOCK =      1;   KBLOCK =      1    inner block; outer block 
   IBRION =     -1    ionic relax: 0-MD 1-quasi-New 2-CG
   NFREE  =      0    steps in history (QN), initial steepest desc. (CG)
   ISIF   =      2    stress and relaxation
   IWAVPR =     10    prediction:  0-non 1-charg 2-wave 3-comb
   ISYM   =      2    0-nonsym 1-usesym 2-fastsym
   LCORR  =      T    Harris-Foulkes like correction to forces

   POTIM  = 0.5000    time-step for ionic-motion
   TEIN   =    0.0    initial temperature
   TEBEG  =    0.0;   TEEND  =   0.0 temperature during run
   SMASS  =  -3.00    Nose mass-parameter (am)
   estimated Nose-frequenzy (Omega)   =  0.10E-29 period in steps =****** mass=  -0.280E-27a.u.
   SCALEE = 1.0000    scale energy and forces
   NPACO  =    256;   APACO  = 16.0  distance and # of slots for P.C.
   PSTRESS=    0.0 pullay stress

  Mass of Ions in am
   POMASS =  63.55
  Ionic Valenz
   ZVAL   =  11.00
  Atomic Wigner-Seitz radii
   RWIGS  =  -1.00
  virtual crystal weights 
   VCA    =   1.00
   NELECT =      44.0000    total number of electrons
   NUPDOWN=      -1.0000    fix difference up-down

 DOS related values:
   EMIN   =  10.00;   EMAX   =-10.00  energy-range for DOS
   EFERMI =   0.00
   ISMEAR =     0;   SIGMA  =   0.05  broadening in eV -4-tet -1-fermi 0-gaus

 Electronic relaxation 2 (details)
   IALGO  =     68    algorithm
   LDIAG  =      T    sub-space diagonalisation (order eigenvalues)
   LSUBROT=      F    optimize rotation matrix (better conditioning)
   TURBO    =      0    0=normal 1=particle mesh
   IRESTART =      0    0=no restart 2=restart with 2 vectors
   NREBOOT  =      0    no. of reboots
   NMIN     =      0    reboot dimension
   EREF     =   0.00    reference energy to select bands
   IMIX   =      4    mixing-type and parameters
     AMIX     =   0.40;   BMIX     =  1.00
     AMIX_MAG =   1.60;   BMIX_MAG =  1.00
     AMIN     =   0.10
     WC   =   100.;   INIMIX=   1;  MIXPRE=   1;  MAXMIX= -45

 Intra band minimization:
   WEIMIN = 0.0000     energy-eigenvalue tresh-hold
   EBREAK =  0.96E-07  absolut break condition
   DEPER  =   0.30     relativ break condition  

   TIME   =   0.40     timestep for ELM

  volume/ion in A,a.u.               =      10.72        72.33
  Fermi-wavevector in a.u.,A,eV,Ry     =   1.651294  3.120493 37.099974  2.726771
  Thomas-Fermi vector in A             =   2.740098
 
 Write flags
   LWAVE        =      F    write WAVECAR
   LDOWNSAMPLE  =      F    k-point downsampling of WAVECAR
   LCHARG       =      T    write CHGCAR
   LVTOT        =      F    write LOCPOT, total local potential
   LVHAR        =      F    write LOCPOT, Hartree potential only
   LELF         =      F    write electronic localiz. function (ELF)
   LORBIT       =      0    0 simple, 1 ext, 2 COOP (PROOUT), +10 PAW based schemes


 Dipole corrections
   LMONO  =      F    monopole corrections only (constant potential shift)
   LDIPOL =      F    correct potential (dipole corrections)
   IDIPOL =      0    1-x, 2-y, 3-z, 4-all directions 
   EPSILON=  1.0000000 bulk dielectric constant

 Exchange correlation treatment:
   GGA     =    PE    GGA type
   LEXCH   =     8    internal setting for exchange type
   VOSKOWN=      0    Vosko Wilk Nusair interpolation
   LHFCALC =     F    Hartree Fock is set to
   LHFONE  =     F    Hartree Fock one center treatment
   AEXX    =    0.0000 exact exchange contribution

 Linear response parameters
   LEPSILON=     F    determine dielectric tensor
   LRPA    =     F    only Hartree local field effects (RPA)
   LNABLA  =     F    use nabla operator in PAW spheres
   LVEL    =     F    velocity operator in full k-point grid
   LINTERFAST=   F  fast interpolation
   KINTER  =     0    interpolate to denser k-point grid
   CSHIFT  =0.1000    complex shift for real part using Kramers Kronig
   OMEGAMAX=  -1.0    maximum frequency
   DEG_THRESHOLD= 0.2000000E-02 threshold for treating states as degnerate
   RTIME   =   -0.100 relaxation time in fs
  (WPLASMAI=    0.000 imaginary part of plasma frequency in eV, 0.658/RTIME)
   DFIELD  = 0.0000000 0.0000000 0.0000000 field for delta impulse in time
 
 Orbital magnetization related:
   ORBITALMAG=     F  switch on orbital magnetization
   LCHIMAG   =     F  perturbation theory with respect to B field
   DQ        =  0.001000  dq finite difference perturbation B field
   LLRAUG    =     F  two centre corrections for induced B field



--------------------------------------------------------------------------------------------------------


 Static calculation
 charge density and potential will be updated during run
 non-spin polarized calculation
 RMM-DIIS sequential band-by-band and
  variant of blocked Davidson during initial phase
 perform sub-space diagonalisation
    before iterative eigenvector-optimisation
 modified Broyden-mixing scheme, WC =      100.0
 initial mixing is a Kerker type mixing with AMIX =  0.4000 and BMIX =      1.0000
 Hartree-type preconditioning will be used
 using additional bands            4
 reciprocal scheme for non local part
 use partial core corrections
 calculate Harris-corrections to forces 
   (improved forces if not selfconsistent)
 use gradient corrections 
 use of overlap-Matrix (Vanderbilt PP)
 Gauss-broadening in eV      SIGMA  =   0.05


--------------------------------------------------------------------------------------------------------


  energy-cutoff  :      300.00
  volume of cell :       42.88
      direct lattice vectors                 reciprocal lattice vectors
     3.500000000  0.000000000  0.000000000     0.285714286  0.000000000  0.000000000
     0.000000000  3.500000000  0.000000000     0.000000000  0.285714286  0.000000000
     0.000000000  0.000000000  3.500000000     0.000000000  0.000000000  0.285714286

  length of vectors
     3.500000000  3.500000000  3.500000000     0.285714286  0.285714286  0.285714286


 
 k-points in units of 2pi/SCALE and weight: KPOINTS created by Atomic Simulation Env
   0.02380952  0.02380952  0.02380952       0.037
   0.07142857  0.02380952  0.02380952       0.111
   0.11904762  0.02380952  0.02380952       0.111
   0.07142857  0.07142857  0.02380952       0.111
   0.11904762  0.07142857  0.02380952       0.222
   0.11904762  0.11904762  0.02380952       0.111
   0.07142857  0.07142857  0.07142857       0.037
   0.11904762  0.07142857  0.07142857       0.111
   0.11904762  0.11904762  0.07142857       0.111
   0.11904762  0.11904762  0.11904762       0.037
 
 k-points in reciprocal lattice and weights: KPOINTS created by Atomic Simulation Env
   0.08333333  0.08333333  0.08333333       0.037
   0.25000000  0.08333333  0.08333333       0.111
   0.41666667  0.08333333  0.08333333       0.111
   0.25000000  0.25000000  0.08333333       0.111
   0.41666667  0.25000000  0.08333333       0.222
   0.41666667  0.41666667  0.08333333       0.111
   0.25000000  0.25000000  0.25000000       0.037
   0.41666667  0.25000000  0.25000000       0.111
   0.41666667  0.41666667  0.25000000       0.111
   0.41666667  0.41666667  0.41666667       0.037
 
 position of ions in fractional coordinates (direct lattice) 
   0.00000000  0.00000000  0.00000000
   0.00000000  0.50000000  0.50000000
   0.50000000  0.00000000  0.50000000
   0.50000000  0.50000000  0.00000000
 
 position of ions in cartesian coordinates  (Angst):
   0.00000000  0.00000000  0.00000000
   0.00000000  1.75000000  1.75000000
   1.75000000  0.00000000  1.75000000
   1.75000000  1.75000000  0.00000000
 


--------------------------------------------------------------------------------------------------------


 k-point  1 :   0.0833 0.0833 0.0833  plane waves:     485
 k-point  2 :   0.2500 0.0833 0.0833  plane waves:     505
 k-point  3 :   0.4167 0.0833 0.0833  plane waves:     500
 k-point  4 :   0.2500 0.2500 0.0833  plane waves:     507
 k-point  5 :   0.4167 0.2500 0.0833  plane waves:     510
 k-point  6 :   0.4167 0.4167 0.0833  plane waves:     512
 k-point  7 :   0.2500 0.2500 0.2500  plane waves:     504
 k-point  8 :   0.4167 0.2500 0.2500  plane waves:     506
 k-point  9 :   0.4167 0.4167 0.2500  plane waves:     506
 k-point 10 :   0.4167 0.4167 0.4167  plane waves:     504

 maximum and minimum number of plane-waves per node :       259      237

 maximum number of plane-waves:       512
 maximum index in each direction: 
   IXMAX=    4   IYMAX=    4   IZMAX=    4
   IXMIN=   -5   IYMIN=   -5   IZMIN=   -5


 parallel 3D FFT for wavefunctions:
    minimum data exchange during FFTs selected (reduces bandwidth)
 parallel 3D FFT for charge:
    minimum data exchange during FFTs selected (reduces bandwidth)


 total amount of memory used by VASP MPI-rank0    32672. kBytes
=======================================================================

   base      :      30000. kBytes
   nonl-proj :        391. kBytes
   fftplans  :        679. kBytes
   grid      :        956. kBytes
   one-center:         31. kBytes
   wavefun   :        615. kBytes
 
     INWAV:  cpu time    0.0000: real time    0.0000
 Broyden mixing: mesh for mixing (old mesh)
   NGX =  9   NGY =  9   NGZ =  9
  (NGX  = 40   NGY  = 40   NGZ  = 40)
  gives a total of    729 points

 initial charge density was supplied:
 charge density of overlapping atoms calculated
 number of electron      44.0000000 magnetization 
 keeping initial charge density in first step


--------------------------------------------------------------------------------------------------------


 Maximum index for augmentation-charges         1337 (set IRDMAX)


--------------------------------------------------------------------------------------------------------


 First call to EWALD:  gamma=   0.506
 Maximum number of real-space cells 3x 3x 3
 Maximum number of reciprocal cells 3x 3x 3

    FEWALD:  cpu time    0.0024: real time    0.0024


--------------------------------------- Iteration      1(   1)  ---------------------------------------


    POTLOK:  cpu time    0.0157: real time    0.0540
    SETDIJ:  cpu time    0.0041: real time    0.0041
     EDDAV:  cpu time    0.1275: real time    0.1275
       DOS:  cpu time    0.0004: real time    0.0004
    --------------------------------------------
      LOOP:  cpu time    0.1477: real time    0.1861

 eigenvalue-minimisations  :   544
 total energy-change (2. order) : 0.2833920E+03  (-0.1436067E+04)
 number of electron      44.0000000 magnetization 
 augmentation part       44.0000000 magnetization 

 Free energy of the ion-electron system (eV)
  ---------------------------------------------------
  alpha Z        PSCENC =       272.91541906
  Ewald energy   TEWEN  =     -4564.88325121
  -Hartree energ DENC   =     -1371.20265691
  -exchange      EXHF   =         0.00000000
  -V(xc)+E(xc)   XCENC  =       184.28514872
  PAW double counting   =      4912.82663951    -5336.19386850
  entropy T*S    EENTRO =        -0.00608746
  eigenvalues    EBANDS =       621.89629596
  atomic energy  EATOM  =      5563.75431560
  Solvation  Ediel_sol  =         0.00000000
  ---------------------------------------------------
  free energy    TOTEN  =       283.39195477 eV

  energy without entropy =      283.39804222  energy(sigma->0) =      283.39499849


--------------------------------------------------------------------------------------------------------




--------------------------------------- Iteration      1(   2)  ---------------------------------------


     EDDAV:  cpu time    0.1081: real time    0.1081
       DOS:  cpu time    0.0005: real time    0.0005
    --------------------------------------------
      LOOP:  cpu time    0.1086: real time    0.1086

 eigenvalue-minimisations  :   520
 total energy-change (2. order) :-0.2814625E+03  (-0.2761674E+03)
 number of electron      44.0000000 magnetization 
 augmentation part       44.0000000 magnetization 

 Free energy of the ion-electron system (eV)
  ---------------------------------------------------
  alpha Z        PSCENC =       272.91541906
  Ewald energy   TEWEN  =     -4564.88325121
  -Hartree energ DENC   =     -1371.20265691
  -exchange      EXHF   =         0.00000000
  -V(xc)+E(xc)   XCENC  =       184.28514872
  PAW double counting   =      4912.82663951    -5336.19386850
  entropy T*S    EENTRO =        -0.00410699
  eigenvalues    EBANDS =       340.43181797
  atomic energy  EATOM  =      5563.75431560
  Solvation  Ediel_sol  =         0.00000000
  ---------------------------------------------------
  free energy    TOTEN  =         1.92945725 eV

  energy without entropy =        1.93356424  energy(sigma->0) =        1.93151074


--------------------------------------------------------------------------------------------------------




--------------------------------------- Iteration      1(   3)  ---------------------------------------


     EDDAV:  cpu time    0.1080: real time    0.1080
       DOS:  cpu time    0.0005: real time    0.0005
    --------------------------------------------
      LOOP:  cpu time    0.1085: real time    0.1085

 eigenvalue-minimisations  :   534
 total energy-change (2. order) :-0.1992751E+02  (-0.1949343E+02)
 number of electron      44.0000000 magnetization 
 augmentation part       44.0000000 magnetization 

 Free energy of the ion-electron system (eV)
  ---------------------------------------------------
  alpha Z        PSCENC =       272.91541906
  Ewald energy   TEWEN  =     -4564.88325121
  -Hartree energ DENC   =     -1371.20265691
  -exchange      EXHF   =         0.00000000
  -V(xc)+E(xc)   XCENC  =       184.28514872
  PAW double counting   =      4912.82663951    -5336.19386850
  entropy T*S    EENTRO =        -0.00625772
  eigenvalues    EBANDS =       320.50646250
  atomic energy  EATOM  =      5563.75431560
  Solvation  Ediel_sol  =         0.00000000
  ---------------------------------------------------
  free energy    TOTEN  =       -17.99804896 eV

  energy without entropy =      -17.99179124  energy(sigma->0) =      -17.99492010


--------------------------------------------------------------------------------------------------------




--------------------------------------- Iteration      1(   4)  ---------------------------------------


     EDDAV:  cpu time    0.1144: real time    0.1144
       DOS:  cpu time    0.0005: real time    0.0005
    --------------------------------------------
      LOOP:  cpu time    0.1148: real time    0.1148

 eigenvalue-minimisations  :   576
 total energy-change (2. order) :-0.3413636E+00  (-0.3408596E+00)
 number of electron      44.0000000 magnetization 
 augmentation part       44.0000000 magnetization 

 Free energy of the ion-electron system (eV)
  ---------------------------------------------------
  alpha Z        PSCENC =       272.91541906
  Ewald energy   TEWEN  =     -4564.88325121
  -Hartree energ DENC   =     -1371.20265691
  -exchange      EXHF   =         0.00000000
  -V(xc)+E(xc)   XCENC  =       184.28514872
  PAW double counting   =      4912.82663951    -5336.19386850
  entropy T*S    EENTRO =        -0.00626877
  eigenvalues    EBANDS =       320.16510997
  atomic energy  EATOM  =      5563.75431560
  Solvation  Ediel_sol  =         0.00000000
  ---------------------------------------------------
  free energy    TOTEN  =       -18.33941254 eV

  energy without entropy =      -18.33314377  energy(sigma->0) =      -18.33627815


--------------------------------------------------------------------------------------------------------




--------------------------------------- Iteration      1(   5)  ---------------------------------------


     EDDAV:  cpu time    0.1224: real time    0.1224
       DOS:  cpu time    0.0005: real time    0.0005
    CHARGE:  cpu time    0.0126: real time    0.0126
    MIXING:  cpu time    0.0004: real time    0.0004
    --------------------------------------------
      LOOP:  cpu time    0.1358: real time    0.1358

 eigenvalue-minimisations  :   642
 total energy-change (2. order) :-0.5822695E-02  (-0.5822189E-02)
 number of electron      43.9999710 magnetization 
 augmentation part       25.9124422 magnetization 

 Broyden mixing:
  rms(total) = 0.15515E+01    rms(broyden)= 0.15512E+01
  rms(prec ) = 0.36830E+01
  weight for this iteration     100.00

 Free energy of the ion-electron system (eV)
  ---------------------------------------------------
  alpha Z        PSCENC =       272.91541906
  Ewald energy   TEWEN  =     -4564.88325121
  -Hartree energ DENC   =     -1371.20265691
  -exchange      EXHF   =         0.00000000
  -V(xc)+E(xc)   XCENC  =       184.28514872
  PAW double counting   =      4912.82663951    -5336.19386850
  entropy T*S    EENTRO =        -0.00626877
  eigenvalues    EBANDS =       320.15928727
  atomic energy  EATOM  =      5563.75431560
  Solvation  Ediel_sol  =         0.00000000
  ---------------------------------------------------
  free energy    TOTEN  =       -18.34523523 eV

  energy without entropy =      -18.33896646  energy(sigma->0) =      -18.34210085


--------------------------------------------------------------------------------------------------------




--------------------------------------- Iteration      1(   6)  ---------------------------------------


    POTLOK:  cpu time    0.0082: real time    0.0082
    SETDIJ:  cpu time    0.0026: real time    0.0026
    EDDIAG:  cpu time    0.0263: real time    0.0263
  RMM-DIIS:  cpu time    0.0638: real time    0.0639
    ORTHCH:  cpu time    0.0022: real time    0.0022
       DOS:  cpu time    0.0004: real time    0.0004
    CHARGE:  cpu time    0.0102: real time    0.0102
    MIXING:  cpu time    0.0004: real time    0.0004
    --------------------------------------------
      LOOP:  cpu time    0.1142: real time    0.1142

 eigenvalue-minimisations  :   542
 total energy-change (2. order) : 0.2670026E+01  (-0.3709239E+01)
 number of electron      43.9999691 magnetization 
 augmentation part       29.0377575 magnetization 

 Broyden mixing:
  rms(total) = 0.68219E+00    rms(broyden)= 0.68157E+00
  rms(prec ) = 0.14719E+01
  weight for this iteration     100.00

 eigenvalues of (default mixing * dielectric matrix)
  average eigenvalue GAMMA=   0.6970
  0.6970

 Free energy of the ion-electron system (eV)
  ---------------------------------------------------
  alpha Z        PSCENC =       272.91541906
  Ewald energy   TEWEN  =     -4564.88325121
  -Hartree energ DENC   =     -1262.89904843
  -exchange      EXHF   =         0.00000000
  -V(xc)+E(xc)   XCENC  =       178.83456620
  PAW double counting   =      5069.21498946    -5472.36001583
  entropy T*S    EENTRO =        -0.00094107
  eigenvalues    EBANDS =       199.74875650
  atomic energy  EATOM  =      5563.75431560
  Solvation  Ediel_sol  =         0.00000000
  ---------------------------------------------------
  free energy    TOTEN  =       -15.67520971 eV

  energy without entropy =      -15.67426864  energy(sigma->0) =      -15.67473917


--------------------------------------------------------------------------------------------------------




--------------------------------------- Iteration      1(   7)  ---------------------------------------


    POTLOK:  cpu time    0.0068: real time    0.0068
    SETDIJ:  cpu time    0.0022: real time    0.0022
    EDDIAG:  cpu time    0.0237: real time    0.0237
  RMM-DIIS:  cpu time    0.0621: real time    0.0621
    ORTHCH:  cpu time    0.0022: real time    0.0022
       DOS:  cpu time    0.0004: real time    0.0004
    CHARGE:  cpu time    0.0102: real time    0.0102
    MIXING:  cpu time    0.0004: real time    0.0004
    --------------------------------------------
      LOOP:  cpu time    0.1079: real time    0.1079

 eigenvalue-minimisations  :   534
 total energy-change (2. order) : 0.1038362E+01  (-0.5970502E+00)
 number of electron      43.9999699 magnetization 
 augmentation part       27.7853107 magnetization 

 Broyden mixing:
  rms(total) = 0.17408E+00    rms(broyden)= 0.17389E+00
  rms(prec ) = 0.43422E+00
  weight for this iteration     100.00

 eigenvalues of (default mixing * dielectric matrix)
  average eigenvalue GAMMA=   1.3349
  2.0329  0.6370

 Free energy of the ion-electron system (eV)
  ---------------------------------------------------
  alpha Z        PSCENC =       272.91541906
  Ewald energy   TEWEN  =     -4564.88325121
  -Hartree energ DENC   =     -1292.33732564
  -exchange      EXHF   =         0.00000000
  -V(xc)+E(xc)   XCENC  =       180.41216190
  PAW double counting   =      5195.86867480    -5618.20633033
  entropy T*S    EENTRO =        -0.00695231
  eigenvalues    EBANDS =       247.84644065
  atomic energy  EATOM  =      5563.75431560
  Solvation  Ediel_sol  =         0.00000000
  ---------------------------------------------------
  free energy    TOTEN  =       -14.63684748 eV

  energy without entropy =      -14.62989517  energy(sigma->0) =      -14.63337133


--------------------------------------------------------------------------------------------------------




--------------------------------------- Iteration      1(   8)  ---------------------------------------


    POTLOK:  cpu time    0.0068: real time    0.0068
    SETDIJ:  cpu time    0.0022: real time    0.0022
    EDDIAG:  cpu time    0.0241: real time    0.0241
  RMM-DIIS:  cpu time    0.0653: real time    0.0653
    ORTHCH:  cpu time    0.0022: real time    0.0022
       DOS:  cpu time    0.0004: real time    0.0004
    CHARGE:  cpu time    0.0102: real time    0.0102
    MIXING:  cpu time    0.0004: real time    0.0004
    --------------------------------------------
      LOOP:  cpu time    0.1116: real time    0.1116

 eigenvalue-minimisations  :   559
 total energy-change (2. order) : 0.6367992E-01  (-0.6444055E-02)
 number of electron      43.9999699 magnetization 
 augmentation part       27.9261300 magnetization 

 Broyden mixing:
  rms(total) = 0.19413E-01    rms(broyden)= 0.19400E-01
  rms(prec ) = 0.49607E-01
  weight for this iteration     100.00

 eigenvalues of (default mixing * dielectric matrix)
  average eigenvalue GAMMA=   1.3969
  0.6390  1.1066  2.4451

 Free energy of the ion-electron system (eV)
  ---------------------------------------------------
  alpha Z        PSCENC =       272.91541906
  Ewald energy   TEWEN  =     -4564.88325121
  -Hartree energ DENC   =     -1275.86225015
  -exchange      EXHF   =         0.00000000
  -V(xc)+E(xc)   XCENC  =       179.65275849
  PAW double counting   =      5379.89526780    -5811.94325317
  entropy T*S    EENTRO =        -0.00773130
  eigenvalues    EBANDS =       241.90555732
  atomic energy  EATOM  =      5563.75431560
  Solvation  Ediel_sol  =         0.00000000
  ---------------------------------------------------
  free energy    TOTEN  =       -14.57316756 eV

  energy without entropy =      -14.56543625  energy(sigma->0) =      -14.56930190


--------------------------------------------------------------------------------------------------------




--------------------------------------- Iteration      1(   9)  ---------------------------------------


    POTLOK:  cpu time    0.0068: real time    0.0068
    SETDIJ:  cpu time    0.0021: real time    0.0021
    EDDIAG:  cpu time    0.0239: real time    0.0239
  RMM-DIIS:  cpu time    0.0651: real time    0.0651
    ORTHCH:  cpu time    0.0022: real time    0.0021
       DOS:  cpu time    0.0004: real time    0.0004
    CHARGE:  cpu time    0.0102: real time    0.0102
    MIXING:  cpu time    0.0004: real time    0.0004
    --------------------------------------------
      LOOP:  cpu time    0.1111: real time    0.1111

 eigenvalue-minimisations  :   567
 total energy-change (2. order) : 0.1494678E-02  (-0.6355739E-03)
 number of electron      43.9999699 magnetization 
 augmentation part       27.9421530 magnetization 

 Broyden mixing:
  rms(total) = 0.41011E-02    rms(broyden)= 0.40902E-02
  rms(prec ) = 0.79252E-02
  weight for this iteration     100.00

 eigenvalues of (default mixing * dielectric matrix)
  average eigenvalue GAMMA=   1.6107
  0.6397  0.9826  2.5044  2.3161

 Free energy of the ion-electron system (eV)
  ---------------------------------------------------
  alpha Z        PSCENC =       272.91541906
  Ewald energy   TEWEN  =     -4564.88325121
  -Hartree energ DENC   =     -1273.19394098
  -exchange      EXHF   =         0.00000000
  -V(xc)+E(xc)   XCENC  =       179.53245254
  PAW double counting   =      5418.04495660    -5852.03548732
  entropy T*S    EENTRO =        -0.00783136
  eigenvalues    EBANDS =       241.30169420
  atomic energy  EATOM  =      5563.75431560
  Solvation  Ediel_sol  =         0.00000000
  ---------------------------------------------------
  free energy    TOTEN  =       -14.57167288 eV

  energy without entropy =      -14.56384152  energy(sigma->0) =      -14.56775720


--------------------------------------------------------------------------------------------------------




--------------------------------------- Iteration      1(  10)  ---------------------------------------


    POTLOK:  cpu time    0.0068: real time    0.0068
    SETDIJ:  cpu time    0.0022: real time    0.0022
    EDDIAG:  cpu time    0.0240: real time    0.0240
  RMM-DIIS:  cpu time    0.0637: real time    0.0637
    ORTHCH:  cpu time    0.0021: real time    0.0021
       DOS:  cpu time    0.0004: real time    0.0004
    CHARGE:  cpu time    0.0102: real time    0.0102
    MIXING:  cpu time    0.0004: real time    0.0004
    --------------------------------------------
      LOOP:  cpu time    0.1097: real time    0.1097

 eigenvalue-minimisations  :   541
 total energy-change (2. order) :-0.6842665E-04  (-0.4695511E-04)
 number of electron      43.9999699 magnetization 
 augmentation part       27.9369493 magnetization 

 Broyden mixing:
  rms(total) = 0.15095E-02    rms(broyden)= 0.15039E-02
  rms(prec ) = 0.34130E-02
  weight for this iteration     100.00

 eigenvalues of (default mixing * dielectric matrix)
  average eigenvalue GAMMA=   1.5980
  2.8370  2.3417  0.6399  1.0252  1.1462

 Free energy of the ion-electron system (eV)
  ---------------------------------------------------
  alpha Z        PSCENC =       272.91541906
  Ewald energy   TEWEN  =     -4564.88325121
  -Hartree energ DENC   =     -1273.55379025
  -exchange      EXHF   =         0.00000000
  -V(xc)+E(xc)   XCENC  =       179.54970430
  PAW double counting   =      5419.66722860    -5853.61904973
  entropy T*S    EENTRO =        -0.00778543
  eigenvalues    EBANDS =       241.60546776
  atomic energy  EATOM  =      5563.75431560
  Solvation  Ediel_sol  =         0.00000000
  ---------------------------------------------------
  free energy    TOTEN  =       -14.57174130 eV

  energy without entropy =      -14.56395588  energy(sigma->0) =      -14.56784859


--------------------------------------------------------------------------------------------------------




--------------------------------------- Iteration      1(  11)  ---------------------------------------


    POTLOK:  cpu time    0.0068: real time    0.0068
    SETDIJ:  cpu time    0.0022: real time    0.0022
    EDDIAG:  cpu time    0.0236: real time    0.0236
  RMM-DIIS:  cpu time    0.0429: real time    0.0429
    ORTHCH:  cpu time    0.0021: real time    0.0021
       DOS:  cpu time    0.0004: real time    0.0004
    --------------------------------------------
      LOOP:  cpu time    0.0781: real time    0.0781

 eigenvalue-minimisations  :   345
 total energy-change (2. order) :-0.6310265E-06  (-0.2983775E-05)
 number of electron      43.9999699 magnetization 
 augmentation part       27.9369493 magnetization 

 Free energy of the ion-electron system (eV)
  ---------------------------------------------------
  alpha Z        PSCENC =       272.91541906
  Ewald energy   TEWEN  =     -4564.88325121
  -Hartree energ DENC   =     -1273.48868438
  -exchange      EXHF   =         0.00000000
  -V(xc)+E(xc)   XCENC  =       179.54638202
  PAW double counting   =      5420.40964536    -5854.35822367
  entropy T*S    EENTRO =        -0.00779651
  eigenvalues    EBANDS =       241.54045179
  atomic energy  EATOM  =      5563.75431560
  Solvation  Ediel_sol  =         0.00000000
  ---------------------------------------------------
  free energy    TOTEN  =       -14.57174194 eV

  energy without entropy =      -14.56394543  energy(sigma->0) =      -14.56784368


--------------------------------------------------------------------------------------------------------




 average (electrostatic) potential at core
  the test charge radii are     0.9430
  (the norm of the test charge is              1.0000)
       1 -62.6994       2 -62.6994       3 -62.6994       4 -62.6994
 
 
 
 E-fermi :   8.6292     XC(G=0): -13.3018     alpha+bet :-14.7912


 k-point     1 :       0.0833    0.0833    0.0833
  band No.  band energies     occupation 
      1      -0.9971      2.00000
      2       3.4427      2.00000
      3       3.4427      2.00000
      4       3.4427      2.00000
      5       3.9471      2.00000
      6       3.9471      2.00000
      7       3.9471      2.00000
      8       5.4231      2.00000
      9       5.5384      2.00000
     10       5.5384      2.00000
     11       6.4234      2.00000
     12       6.4234      2.00000
     13       6.8895      2.00000
     14       6.8895      2.00000
     15       6.8895      2.00000
     16       6.9830      2.00000
     17       6.9830      2.00000
     18       6.9830      2.00000
     19       7.2155      2.00000
     20       7.2155      2.00000
     21       7.2155      2.00000
     22      10.2476      0.00000
     23      10.2476      0.00000
     24      10.2476      0.00000
     25      17.4218      0.00000
     26      17.4218      0.00000

 k-point     2 :       0.2500    0.0833    0.0833
  band No.  band energies     occupation 
      1      -0.2931      2.00000
      2       3.3602      2.00000
      3       3.7578      2.00000
      4       3.7578      2.00000
      5       4.1371      2.00000
      6       4.1554      2.00000
      7       4.1554      2.00000
      8       5.2286      2.00000
      9       5.6836      2.00000
     10       5.6907      2.00000
     11       6.0612      2.00000
     12       6.0612      2.00000
     13       6.2554      2.00000
     14       6.4209      2.00000
     15       6.5251      2.00000
     16       6.7481      2.00000
     17       6.7585      2.00000
     18       6.7585      2.00000
     19       7.0913      2.00000
     20       7.1918      2.00000
     21       7.1918      2.00000
     22       8.0761      2.00000
     23      11.6122      0.00000
     24      11.6122      0.00000
     25      17.6709      0.00000
     26      17.6733      0.00000

 k-point     3 :       0.4167    0.0833    0.0833
  band No.  band energies     occupation 
      1       1.0174      2.00000
      2       2.5553      2.00000
      3       4.1707      2.00000
      4       4.1707      2.00000
      5       4.4740      2.00000
      6       4.5612      2.00000
      7       4.5612      2.00000
      8       4.8741      2.00000
      9       5.2206      2.00000
     10       5.2206      2.00000
     11       5.7791      2.00000
     12       5.7949      2.00000
     13       5.9814      2.00000
     14       6.2472      2.00000
     15       6.3663      2.00000
     16       6.4445      2.00000
     17       6.4445      2.00000
     18       6.7014      2.00000
     19       6.8008      2.00000
     20       6.9061      2.00000
     21       7.1832      2.00000
     22       7.1832      2.00000
     23      13.4768      0.00000
     24      13.4768      0.00000
     25      15.7427      0.00000
     26      15.7427      0.00000

 k-point     4 :       0.2500    0.2500    0.0833
  band No.  band energies     occupation 
      1       0.3779      2.00000
      2       3.7251      2.00000
      3       3.7251      2.00000
      4       4.0083      2.00000
      5       4.2976      2.00000
      6       4.3195      2.00000
      7       4.3195      2.00000
      8       5.1543      2.00000
      9       5.6463      2.00000
     10       5.6463      2.00000
     11       5.6815      2.00000
     12       5.7304      2.00000
     13       5.7465      2.00000
     14       6.2548      2.00000
     15       6.5299      2.00000
     16       6.5933      2.00000
     17       6.5933      2.00000
     18       6.6205      2.00000
     19       7.0366      2.00000
     20       7.0366      2.00000
     21       7.0632      2.00000
     22       9.2061      0.00000
     23       9.2061      0.00000
     24      12.6176      0.00000
     25      15.1866      0.00000
     26      18.2765      0.00000

 k-point     5 :       0.4167    0.2500    0.0833
  band No.  band energies     occupation 
      1       1.6096      2.00000
      2       3.0163      2.00000
      3       4.2296      2.00000
      4       4.3637      2.00000
      5       4.4799      2.00000
      6       4.6083      2.00000
      7       4.6191      2.00000
      8       4.9210      2.00000
      9       5.0349      2.00000
     10       5.2261      2.00000
     11       5.3973      2.00000
     12       5.5846      2.00000
     13       5.9331      2.00000
     14       6.2445      2.00000
     15       6.3045      2.00000
     16       6.3316      2.00000
     17       6.3577      2.00000
     18       6.7371      2.00000
     19       6.9581      2.00000
     20       6.9608      2.00000
     21       6.9693      2.00000
     22       7.6055      2.00000
     23      10.6653      0.00000
     24      12.4552      0.00000
     25      14.5824      0.00000
     26      16.5998      0.00000

 k-point     6 :       0.4167    0.4167    0.0833
  band No.  band energies     occupation 
      1       2.6334      2.00000
      2       3.6783      2.00000
      3       3.6783      2.00000
      4       4.1381      2.00000
      5       4.8266      2.00000
      6       4.8680      2.00000
      7       4.8680      2.00000
      8       4.9492      2.00000
      9       5.1087      2.00000
     10       5.1087      2.00000
     11       5.1396      2.00000
     12       5.4200      2.00000
     13       5.9103      2.00000
     14       6.0913      2.00000
     15       6.0962      2.00000
     16       6.0962      2.00000
     17       6.3385      2.00000
     18       6.6301      2.00000
     19       6.6301      2.00000
     20       6.7281      2.00000
     21       7.5582      2.00000
     22       8.6249      1.09637
     23       8.6249      1.09637
     24      10.1562      0.00000
     25      16.0570      0.00000
     26      18.0891      0.00000

 k-point     7 :       0.2500    0.2500    0.2500
  band No.  band energies     occupation 
      1       0.9915      2.00000
      2       3.8823      2.00000
      3       3.8823      2.00000
      4       3.8823      2.00000
      5       4.5041      2.00000
      6       4.5041      2.00000
      7       4.5041      2.00000
      8       5.1830      2.00000
      9       5.5053      2.00000
     10       5.5053      2.00000
     11       5.5053      2.00000
     12       5.6652      2.00000
     13       5.6652      2.00000
     14       6.2213      2.00000
     15       6.2213      2.00000
     16       6.2213      2.00000
     17       6.5353      2.00000
     18       6.5353      2.00000
     19       7.1439      2.00000
     20       7.1439      2.00000
     21       7.1439      2.00000
     22       9.8703      0.00000
     23       9.8703      0.00000
     24       9.8703      0.00000
     25      16.0800      0.00000
     26      16.0800      0.00000

 k-point     8 :       0.4167    0.2500    0.2500
  band No.  band energies     occupation 
      1       2.0754      2.00000
      2       3.2288      2.00000
      3       4.0070      2.00000
      4       4.0070      2.00000
      5       4.7529      2.00000
      6       4.7529      2.00000
      7       4.8688      2.00000
      8       5.1229      2.00000
      9       5.3841      2.00000
     10       5.3841      2.00000
     11       5.3904      2.00000
     12       5.5557      2.00000
     13       5.7089      2.00000
     14       5.9071      2.00000
     15       6.0325      2.00000
     16       6.0325      2.00000
     17       6.7450      2.00000
     18       6.8476      2.00000
     19       7.0546      2.00000
     20       7.0546      2.00000
     21       7.0737      2.00000
     22       7.7915      2.00000
     23      10.8109      0.00000
     24      10.8109      0.00000
     25      13.9610      0.00000
     26      13.9610      0.00000

 k-point     9 :       0.4167    0.4167    0.2500
  band No.  band energies     occupation 
      1       2.7951      2.00000
      2       3.4729      2.00000
      3       3.4729      2.00000
      4       3.7145      2.00000
      5       5.0610      2.00000
      6       5.1756      2.00000
      7       5.1756      2.00000
      8       5.4777      2.00000
      9       5.4784      2.00000
     10       5.5225      2.00000
     11       5.5225      2.00000
     12       5.6193      2.00000
     13       5.6504      2.00000
     14       5.7631      2.00000
     15       5.7631      2.00000
     16       5.7784      2.00000
     17       6.7246      2.00000
     18       6.9715      2.00000
     19       6.9715      2.00000
     20       6.9822      2.00000
     21       7.3493      2.00000
     22       8.5704      1.90363
     23       8.5704      1.90363
     24       9.8656      0.00000
     25      13.6551      0.00000
     26      15.1713      0.00000

 k-point    10 :       0.4167    0.4167    0.4167
  band No.  band energies     occupation 
      1       3.0233      2.00000
      2       3.3171      2.00000
      3       3.3171      2.00000
      4       3.3171      2.00000
      5       5.3415      2.00000
      6       5.3415      2.00000
      7       5.3415      2.00000
      8       5.4861      2.00000
      9       5.4861      2.00000
     10       5.5434      2.00000
     11       5.5434      2.00000
     12       5.5434      2.00000
     13       6.2655      2.00000
     14       6.2655      2.00000
     15       6.2655      2.00000
     16       6.5776      2.00000
     17       7.0088      2.00000
     18       7.0088      2.00000
     19       7.1034      2.00000
     20       7.1034      2.00000
     21       7.1034      2.00000
     22       8.4441      2.00000
     23       8.4441      2.00000
     24       8.4441      2.00000
     25      13.3947      0.00000
     26      13.3947      0.00000


--------------------------------------------------------------------------------------------------------


 soft charge-density along one line, spin component           1
         0         1         2         3         4         5         6         7         8         9
 total charge-density along one line
 
 pseudopotential strength for first ion, spin component:           1
 -2.186  -0.000   0.000  -0.000   0.000  -5.253   0.000  -0.000
 -0.000  -2.186   0.000  -0.000   0.000   0.000  -5.253  -0.000
  0.000   0.000  -2.167  -0.000  -0.000  -0.000  -0.000  -5.266
 -0.000  -0.000  -0.000  -2.186  -0.000   0.000   0.000   0.000
  0.000   0.000  -0.000  -0.000  -2.167  -0.000  -0.000   0.000
 -5.253   0.000  -0.000   0.000  -0.000  10.657  -0.000   0.000
  0.000  -5.253  -0.000   0.000  -0.000  -0.000  10.657  -0.000
 -0.000  -0.000  -5.266   0.000   0.000   0.000  -0.000  10.666
  0.000   0.000   0.000  -5.253   0.000  -0.000  -0.000  -0.000
 -0.000  -0.000   0.000   0.000  -5.266   0.000   0.000  -0.000
  0.000   0.000   0.000   0.000  -0.000   0.000   0.000  -0.000
  0.000   0.000   0.000   0.000  -0.000   0.000   0.000  -0.000
  0.000   0.000   0.000  -0.000   0.000  -0.000  -0.000   0.000
 -0.000  -0.000   0.000   0.000   0.000  -0.000   0.000  -0.000
 -0.000  -0.000  -0.000   0.000   0.000   0.000  -0.000   0.000
  0.000   0.000   0.000   0.000   0.000   0.000   0.000   0.000
  0.000  -0.000   0.000   0.000  -0.000  -0.000   0.000   0.000
 -0.000   0.000  -0.000   0.000   0.000  -0.000  -0.000  -0.000
 total augmentation occupancy for first ion, spin component:           1
  1.914   0.000  -0.000  -0.000   0.000  -0.004  -0.000   0.000   0.000   0.000  -0.000  -0.000   0.000  -0.000  -0.000   0.000
 -0.000   1.914  -0.000   0.000  -0.000  -0.000  -0.004  -0.000  -0.000  -0.000  -0.000  -0.000   0.000  -0.000  -0.000   0.000
  0.000   0.000   1.932   0.000  -0.000  -0.000  -0.000  -0.027   0.000   0.000   0.000  -0.000  -0.000  -0.000   0.000  -0.000
 -0.000   0.000  -0.000   1.914   0.000   0.000   0.000  -0.000  -0.004   0.000   0.000   0.000   0.000   0.000   0.000   0.000
 -0.000  -0.000   0.000   0.000   1.932   0.000   0.000  -0.000  -0.000  -0.027  -0.000   0.000  -0.000   0.000  -0.000   0.000
 -0.004   0.000   0.000  -0.000   0.000   0.022   0.000  -0.000   0.000  -0.000   0.000  -0.000  -0.000  -0.000  -0.000   0.000
 -0.000  -0.004  -0.000  -0.000   0.000   0.000   0.022  -0.000   0.000   0.000   0.000  -0.000  -0.000   0.000   0.000  -0.000
 -0.000  -0.000  -0.027   0.000  -0.000  -0.000  -0.000   0.021  -0.000   0.000  -0.000  -0.000  -0.000   0.000  -0.000   0.000
 -0.000   0.000   0.000  -0.004   0.000   0.000   0.000  -0.000   0.022  -0.000  -0.000  -0.000   0.000  -0.000   0.000  -0.000
  0.000   0.000   0.000   0.000  -0.027  -0.000   0.000   0.000  -0.000   0.021   0.000   0.000  -0.000   0.000   0.000   0.000
 -0.000   0.000   0.000   0.000  -0.000   0.000   0.000  -0.000  -0.000   0.000   1.990  -0.210   0.000   0.000   0.000   0.000
  0.000   0.000  -0.000  -0.000   0.000  -0.000  -0.000  -0.000  -0.000   0.000  -0.210   0.028   0.000   0.000   0.000   0.000
  0.000   0.000  -0.000   0.000  -0.000  -0.000  -0.000   0.000   0.000  -0.000   0.000   0.000   0.290  -0.000   0.000  -0.020
 -0.000  -0.000   0.000   0.000   0.000  -0.000   0.000   0.000  -0.000   0.000   0.000   0.000  -0.000   0.290  -0.000   0.000
 -0.000  -0.000   0.000   0.000  -0.000  -0.000   0.000  -0.000   0.000   0.000   0.000   0.000  -0.000   0.000   0.290   0.000
  0.000   0.000   0.000   0.000   0.000   0.000  -0.000  -0.000  -0.000  -0.000   0.000   0.000  -0.020   0.000   0.000   0.002
  0.000  -0.000  -0.000   0.000   0.000   0.000   0.000   0.000  -0.000   0.000   0.000   0.000  -0.000  -0.020  -0.000   0.000
  0.000   0.000  -0.000   0.000   0.000  -0.000   0.000   0.000  -0.000   0.000   0.000   0.000   0.000  -0.000  -0.020   0.000


------------------------ aborting loop because EDIFF is reached ----------------------------------------


    CHARGE:  cpu time    0.0105: real time    0.0105
    FORLOC:  cpu time    0.0006: real time    0.0006
    FORNL :  cpu time    0.0224: real time    0.0224
    STRESS:  cpu time    0.0388: real time    0.0388
    FORCOR:  cpu time    0.0071: real time    0.0071
    FORHAR:  cpu time    0.0017: real time    0.0017
    MIXING:  cpu time    0.0004: real time    0.0004
    OFIELD:  cpu time    0.0000: real time    0.0000

  FORCE on cell =-STRESS in cart. coord.  units (eV):
  Direction    XX          YY          ZZ          XY          YZ          ZX
  --------------------------------------------------------------------------------------
  Alpha Z   272.91542   272.91542   272.91542
  Ewald   -1521.62842 -1521.62842 -1521.62842    -0.00000     0.00000     0.00000
  Hartree   424.48886   424.48886   424.48886    -0.00000    -0.00000    -0.00000
  E(xc)    -258.19130  -258.19130  -258.19130    -0.00000     0.00000    -0.00000
  Local     422.29676   422.29676   422.29676     0.00000     0.00000     0.00000
  n-local   -72.21799   -80.25793   -81.88548     0.77485     2.72227     1.39233
  augment   379.62174   379.62174   379.62174    -0.00000    -0.00000    -0.00000
  Kinetic   370.22978   362.50511   356.66824    -3.50648    -0.61061    -1.62371
  Fock        0.00000     0.00000     0.00000     0.00000     0.00000     0.00000
  -------------------------------------------------------------------------------------
  Total       4.51697     4.51697     4.51697     0.00000     0.00000     0.00000
  in kB     168.79254   168.79254   168.79254     0.00000     0.00000     0.00000
  external pressure =      168.79 kB  Pullay stress =        0.00 kB


 VOLUME and BASIS-vectors are now :
 -----------------------------------------------------------------------------
  energy-cutoff  :      300.00
  volume of cell :       42.88
      direct lattice vectors                 reciprocal lattice vectors
     3.500000000  0.000000000  0.000000000     0.285714286  0.000000000  0.000000000
     0.000000000  3.500000000  0.000000000     0.000000000  0.285714286  0.000000000
     0.000000000  0.000000000  3.500000000     0.000000000  0.000000000  0.285714286

  length of vectors
     3.500000000  3.500000000  3.500000000     0.285714286  0.285714286  0.285714286


 FORCES acting on ions
    electron-ion (+dipol)            ewald-force                    non-local-force                 convergence-correction
 -----------------------------------------------------------------------------------------------
   0.314E-13 0.797E-13 0.433E-13   -.263E-13 0.310E-14 -.173E-13   -.159E-21 0.106E-21 0.106E-21   -.207E-12 -.150E-13 -.103E-12
   0.315E-13 -.202E-12 -.260E-12   -.266E-13 0.988E-14 0.554E-14   -.119E-21 0.529E-21 -.212E-21   -.199E-12 0.121E-12 0.495E-13
   -.250E-12 0.628E-13 0.131E-11   0.265E-13 -.950E-14 0.570E-14   0.424E-21 0.768E-21 0.000E+00   0.147E-12 0.236E-13 0.798E-13
   -.243E-12 -.570E-13 -.954E-12   0.262E-13 -.272E-14 0.454E-14   0.529E-22 0.225E-21 -.212E-21   0.126E-12 0.105E-12 -.665E-13
 -----------------------------------------------------------------------------------------------
   -.431E-12 -.116E-12 0.143E-12   -.963E-16 0.757E-15 -.156E-14   0.199E-21 0.163E-20 -.318E-21   -.132E-12 0.234E-12 -.398E-13
 
 
 POSITION                                       TOTAL-FORCE (eV/Angst)
 -----------------------------------------------------------------------------------
      0.00000      0.00000      0.00000        -0.000000     -0.000000     -0.000000
      0.00000      1.75000      1.75000        -0.000000     -0.000000      0.000000
      1.75000      0.00000      1.75000        -0.000000      0.000000      0.000000
      1.75000      1.75000      0.00000         0.000000     -0.000000     -0.000000
 -----------------------------------------------------------------------------------
    total drift:                               -0.000000      0.000000      0.000000


--------------------------------------------------------------------------------------------------------



  FREE ENERGIE OF THE ION-ELECTRON SYSTEM (eV)
  ---------------------------------------------------
  free  energy   TOTEN  =       -14.57174194 eV

  energy  without entropy=      -14.56394543  energy(sigma->0) =      -14.56784368
 


--------------------------------------------------------------------------------------------------------


    POTLOK:  cpu time    0.0090: real time    0.0090


--------------------------------------------------------------------------------------------------------


     LOOP+:  cpu time    1.4430: real time    1.5988
    4ORBIT:  cpu time    0.0000: real time    0.0000

 total amount of memory used by VASP MPI-rank0    32672. kBytes
=======================================================================

   base      :      30000. kBytes
   nonl-proj :        391. kBytes
   fftplans  :        679. kBytes
   grid      :        956. kBytes
   one-center:         31. kBytes
   wavefun   :        615. kBytes
 
  
  
 General timing and accounting informations for this job:
 ========================================================
  
                  Total CPU time used (sec):        2.085
                            User time (sec):        1.886
                          System time (sec):        0.199
                         Elapsed time (sec):        2.789
  
                   Maximum memory used (kb):      160032.
                   Average memory used (kb):           0.
  
                          Minor page faults:        28076
                          Major page faults:            0
                 Voluntary context switches:         1079
