       N       E                     dE             d eps       ncg     rms          rms(c)
DAV:   1     0.281535773716E+03    0.28154E+03   -0.14393E+04   528   0.191E+03
DAV:   2     0.189734431259E+01   -0.27964E+03   -0.27439E+03   520   0.367E+02
DAV:   3    -0.174517891730E+02   -0.19349E+02   -0.18362E+02   582   0.143E+02
DAV:   4    -0.178641795923E+02   -0.41239E+00   -0.41048E+00   614   0.252E+01
DAV:   5    -0.178693264160E+02   -0.51468E-02   -0.51425E-02   660   0.236E+00    0.147E+01
RMM:   6    -0.163866968272E+02    0.14826E+01   -0.44245E+01   534   0.100E+02    0.929E+00
RMM:   7    -0.145854318167E+02    0.18013E+01   -0.84099E+00   525   0.475E+01    0.764E-01
RMM:   8    -0.145727883054E+02    0.12644E-01   -0.95060E-02   534   0.472E+00    0.687E-01
RMM:   9    -0.145649978656E+02    0.77904E-02   -0.25459E-02   548   0.212E+00    0.700E-02
RMM:  10    -0.145651841148E+02   -0.18625E-03   -0.15607E-03   550   0.254E-01    0.624E-02
RMM:  11    -0.145651666339E+02    0.17481E-04   -0.58357E-04   538   0.355E-01    0.194E-02
RMM:  12    -0.145651610315E+02    0.56025E-05   -0.44511E-05   400   0.112E-01
   1 F= -.14565161E+02 E0= -.14564352E+02  d E =-.161854E-02
