 vasp.5.4.4.18Apr17-6-g9f103f2a35 (build Jan 01 2020 16:14:11) complex          
  
 executed on             LinuxIFC date 2022.03.02  19:16:03
 running on    4 total cores
 distrk:  each k-point on    4 cores,    1 groups
 distr:  one band on NCORES_PER_BAND=   2 cores,    2 groups


--------------------------------------------------------------------------------------------------------


 INCAR:
 POTCAR:    PAW_PBE Cu 22Jun2005                  
 POTCAR:    PAW_PBE Cu 22Jun2005                  
   VRHFIN =Cu: d10 p1                                                           
   LEXCH  = PE                                                                  
   EATOM  =  1390.9808 eV,  102.2342 Ry                                         
                                                                                
   TITEL  = PAW_PBE Cu 22Jun2005                                                
   LULTRA =        F    use ultrasoft PP ?                                      
   IUNSCR =        1    unscreen: 0-lin 1-nonlin 2-no                           
   RPACOR =    2.000    partial core radius                                     
   POMASS =   63.546; ZVAL   =   11.000    mass and valenz                      
   RCORE  =    2.300    outmost cutoff radius                                   
   RWIGS  =    2.200; RWIGS  =    1.164    wigner-seitz radius (au A)           
   ENMAX  =  295.446; ENMIN  =  221.585 eV                                      
   ICORE  =        3    local potential                                         
   LCOR   =        T    correct aug charges                                     
   LPAW   =        T    paw PP                                                  
   EAUG   =  586.980                                                            
   DEXC   =    0.000                                                            
   RMAX   =    2.344    core radius for proj-oper                               
   RAUG   =    1.300    factor for augmentation sphere                          
   RDEP   =    2.302    radius for radial grids                                 
   RDEPT  =    1.771    core radius for aug-charge                              
                                                                                
   Atomic configuration                                                         
    9 entries                                                                   
     n  l   j            E        occ.                                          
     1  0  0.50     -8850.2468   2.0000                                         
     2  0  0.50     -1062.3498   2.0000                                         
     2  1  1.50      -916.8226   6.0000                                         
     3  0  0.50      -114.6929   2.0000                                         
     3  1  1.50       -72.1325   6.0000                                         
     3  2  2.50        -5.0394  10.0000                                         
     4  0  0.50        -4.6097   1.0000                                         
     4  1  0.50        -4.0817   0.0000                                         
     4  3  2.50        -1.3606   0.0000                                         
   Description                                                                  
     l       E           TYP  RCUT    TYP  RCUT                                 
     2     -5.0393973     23  2.200                                             
     2     10.8846608     23  2.200                                             
     0     -4.6097109     23  2.200                                             
     0      8.2520465     23  2.200                                             
     1     -2.7211652     23  2.200                                             
     1     21.7055443     23  2.200                                             
     3      2.7211652     23  2.300                                             
  local pseudopotential read in
  partial core-charges read in
  partial kinetic energy density read in
  atomic valenz-charges read in
  non local Contribution for L=           2  read in
    real space projection operators read in
  non local Contribution for L=           2  read in
    real space projection operators read in
  non local Contribution for L=           0  read in
    real space projection operators read in
  non local Contribution for L=           0  read in
    real space projection operators read in
  non local Contribution for L=           1  read in
    real space projection operators read in
  non local Contribution for L=           1  read in
    real space projection operators read in
    PAW grid and wavefunctions read in
 
   number of l-projection  operators is LMAX  =           6
   number of lm-projection operators is LMMAX =          18
 
  PAW_PBE Cu 22Jun2005                  :
 energy of atom  1       EATOM=-1390.9808
 kinetic energy error for atom=    0.0422 (will be added to EATOM!!)
 
 
 POSCAR: Cu                                      
  positions in cartesian coordinates
  No initial velocities read in
 exchange correlation table for  LEXCH =        8
   RHO(1)=    0.500       N(1)  =     2000
   RHO(2)=  100.500       N(2)  =     4000
 


--------------------------------------------------------------------------------------------------------


 ion  position               nearest neighbor table
   1  0.000  0.000  0.000-   2 2.69   3 2.69   4 2.69   2 2.69   3 2.69   2 2.69   4 2.69   2 2.69
                             3 2.69   4 2.69   3 2.69   4 2.69
   2  0.000  0.500  0.500-   1 2.69   3 2.69   4 2.69   1 2.69   4 2.69   1 2.69   3 2.69   1 2.69
                             3 2.69   4 2.69   4 2.69   3 2.69
   3  0.500  0.000  0.500-   1 2.69   2 2.69   4 2.69   1 2.69   4 2.69   2 2.69   4 2.69   4 2.69
                             1 2.69   2 2.69   1 2.69   2 2.69
   4  0.500  0.500  0.000-   1 2.69   2 2.69   3 2.69   2 2.69   3 2.69   1 2.69   3 2.69   3 2.69
                             1 2.69   2 2.69   2 2.69   1 2.69
 
  LATTYP: Found a simple cubic cell.
 ALAT       =     3.8000000000
  
  Lattice vectors:
  
 A1 = (   3.8000000000,   0.0000000000,   0.0000000000)
 A2 = (   0.0000000000,   3.8000000000,   0.0000000000)
 A3 = (   0.0000000000,   0.0000000000,   3.8000000000)


Analysis of symmetry for initial positions (statically):
=====================================================================
 Subroutine PRICEL returns following result:
 
  LATTYP: Found a face centered cubic cell.
 ALAT       =     3.8000000000
  
  Lattice vectors:
  
 A1 = (   1.9000000000,   1.9000000000,   0.0000000000)
 A2 = (   1.9000000000,   0.0000000000,  -1.9000000000)
 A3 = (   0.0000000000,   1.9000000000,  -1.9000000000)
 
   4 primitive cells build up your supercell.
 

 Routine SETGRP: Setting up the symmetry group for a 
 simple cubic supercell.


 Subroutine GETGRP returns: Found 48 space group operations
 (whereof 48 operations were pure point group operations)
 out of a pool of 48 trial point group operations.


The static configuration has the point symmetry O_h .


Analysis of symmetry for dynamics (positions and initial velocities):
=====================================================================
 Subroutine PRICEL returns following result:
 
  LATTYP: Found a face centered cubic cell.
 ALAT       =     3.8000000000
  
  Lattice vectors:
  
 A1 = (   1.9000000000,   1.9000000000,   0.0000000000)
 A2 = (   1.9000000000,   0.0000000000,  -1.9000000000)
 A3 = (   0.0000000000,   1.9000000000,  -1.9000000000)
 
   4 primitive cells build up your supercell.
 

 Routine SETGRP: Setting up the symmetry group for a 
 simple cubic supercell.


 Subroutine GETGRP returns: Found 48 space group operations
 (whereof 48 operations were pure point group operations)
 out of a pool of 48 trial point group operations.


The dynamic configuration has the point symmetry O_h .


 Subroutine INISYM returns: Found 48 space group operations
 (whereof 48 operations are pure point group operations),
 and found     4 'primitive' translations

 
 
 KPOINTS: KPOINTS created by Atomic Simulation Env

Automatic generation of k-mesh.
Space group operators:
 irot       det(A)        alpha          n_x          n_y          n_z        tau_x        tau_y        tau_z
    1     1.000000     0.000001     1.000000     0.000000     0.000000     0.000000     0.000000     0.000000
    2    -1.000000     0.000001     1.000000     0.000000     0.000000     0.000000     0.000000     0.000000
    3     1.000000   120.000000    -0.577350    -0.577350    -0.577350     0.000000     0.000000     0.000000
    4    -1.000000   120.000000    -0.577350    -0.577350    -0.577350     0.000000     0.000000     0.000000
    5     1.000000   120.000000     0.577350     0.577350     0.577350     0.000000     0.000000     0.000000
    6    -1.000000   120.000000     0.577350     0.577350     0.577350     0.000000     0.000000     0.000000
    7     1.000000    90.000000     0.000000     0.000000    -1.000000     0.000000     0.000000     0.000000
    8    -1.000000    90.000000     0.000000     0.000000    -1.000000     0.000000     0.000000     0.000000
    9     1.000000   180.000000     0.000000     0.707107     0.707107     0.000000     0.000000     0.000000
   10    -1.000000   180.000000     0.000000     0.707107     0.707107     0.000000     0.000000     0.000000
   11     1.000000    90.000000     0.000000     1.000000     0.000000     0.000000     0.000000     0.000000
   12    -1.000000    90.000000     0.000000     1.000000     0.000000     0.000000     0.000000     0.000000
   13     1.000000   180.000000     0.000000     0.000000     1.000000     0.000000     0.000000     0.000000
   14    -1.000000   180.000000     0.000000     0.000000     1.000000     0.000000     0.000000     0.000000
   15     1.000000   120.000000    -0.577350     0.577350     0.577350     0.000000     0.000000     0.000000
   16    -1.000000   120.000000    -0.577350     0.577350     0.577350     0.000000     0.000000     0.000000
   17     1.000000   120.000000    -0.577350     0.577350    -0.577350     0.000000     0.000000     0.000000
   18    -1.000000   120.000000    -0.577350     0.577350    -0.577350     0.000000     0.000000     0.000000
   19     1.000000    90.000000     0.000000     0.000000     1.000000     0.000000     0.000000     0.000000
   20    -1.000000    90.000000     0.000000     0.000000     1.000000     0.000000     0.000000     0.000000
   21     1.000000    90.000000    -1.000000     0.000000     0.000000     0.000000     0.000000     0.000000
   22    -1.000000    90.000000    -1.000000     0.000000     0.000000     0.000000     0.000000     0.000000
   23     1.000000   180.000000     0.707107     0.000000     0.707107     0.000000     0.000000     0.000000
   24    -1.000000   180.000000     0.707107     0.000000     0.707107     0.000000     0.000000     0.000000
   25     1.000000   120.000000     0.577350    -0.577350     0.577350     0.000000     0.000000     0.000000
   26    -1.000000   120.000000     0.577350    -0.577350     0.577350     0.000000     0.000000     0.000000
   27     1.000000   120.000000    -0.577350    -0.577350     0.577350     0.000000     0.000000     0.000000
   28    -1.000000   120.000000    -0.577350    -0.577350     0.577350     0.000000     0.000000     0.000000
   29     1.000000   180.000000     1.000000     0.000000     0.000000     0.000000     0.000000     0.000000
   30    -1.000000   180.000000     1.000000     0.000000     0.000000     0.000000     0.000000     0.000000
   31     1.000000    90.000000     0.000000    -1.000000     0.000000     0.000000     0.000000     0.000000
   32    -1.000000    90.000000     0.000000    -1.000000     0.000000     0.000000     0.000000     0.000000
   33     1.000000   180.000000     0.707107     0.707107     0.000000     0.000000     0.000000     0.000000
   34    -1.000000   180.000000     0.707107     0.707107     0.000000     0.000000     0.000000     0.000000
   35     1.000000    90.000000     1.000000     0.000000     0.000000     0.000000     0.000000     0.000000
   36    -1.000000    90.000000     1.000000     0.000000     0.000000     0.000000     0.000000     0.000000
   37     1.000000   120.000000     0.577350    -0.577350    -0.577350     0.000000     0.000000     0.000000
   38    -1.000000   120.000000     0.577350    -0.577350    -0.577350     0.000000     0.000000     0.000000
   39     1.000000   180.000000     0.000000     1.000000     0.000000     0.000000     0.000000     0.000000
   40    -1.000000   180.000000     0.000000     1.000000     0.000000     0.000000     0.000000     0.000000
   41     1.000000   120.000000     0.577350     0.577350    -0.577350     0.000000     0.000000     0.000000
   42    -1.000000   120.000000     0.577350     0.577350    -0.577350     0.000000     0.000000     0.000000
   43     1.000000   180.000000     0.000000    -0.707107     0.707107     0.000000     0.000000     0.000000
   44    -1.000000   180.000000     0.000000    -0.707107     0.707107     0.000000     0.000000     0.000000
   45     1.000000   180.000000     0.707107    -0.707107     0.000000     0.000000     0.000000     0.000000
   46    -1.000000   180.000000     0.707107    -0.707107     0.000000     0.000000     0.000000     0.000000
   47     1.000000   180.000000     0.707107     0.000000    -0.707107     0.000000     0.000000     0.000000
   48    -1.000000   180.000000     0.707107     0.000000    -0.707107     0.000000     0.000000     0.000000
 
 Subroutine IBZKPT returns following result:
 ===========================================
 
 Found     10 irreducible k-points:
 
 Following reciprocal coordinates:
            Coordinates               Weight
  0.083333  0.083333  0.083333      8.000000
  0.250000  0.083333  0.083333     24.000000
  0.416667  0.083333  0.083333     24.000000
  0.250000  0.250000  0.083333     24.000000
  0.416667  0.250000  0.083333     48.000000
  0.416667  0.416667  0.083333     24.000000
  0.250000  0.250000  0.250000      8.000000
  0.416667  0.250000  0.250000     24.000000
  0.416667  0.416667  0.250000     24.000000
  0.416667  0.416667  0.416667      8.000000
 
 Following cartesian coordinates:
            Coordinates               Weight
  0.021930  0.021930  0.021930      8.000000
  0.065789  0.021930  0.021930     24.000000
  0.109649  0.021930  0.021930     24.000000
  0.065789  0.065789  0.021930     24.000000
  0.109649  0.065789  0.021930     48.000000
  0.109649  0.109649  0.021930     24.000000
  0.065789  0.065789  0.065789      8.000000
  0.109649  0.065789  0.065789     24.000000
  0.109649  0.109649  0.065789     24.000000
  0.109649  0.109649  0.109649      8.000000
 


--------------------------------------------------------------------------------------------------------




 Dimension of arrays:
   k-points           NKPTS =     10   k-points in BZ     NKDIM =     10   number of bands    NBANDS=     26
   number of dos      NEDOS =    301   number of ions     NIONS =      4
   non local maximal  LDIM  =      6   non local SUM 2l+1 LMDIM =     18
   total plane-waves  NPLWV =  13824
   max r-space proj   IRMAX =      1   max aug-charges    IRDMAX=   7496
   dimension x,y,z NGX =    24 NGY =   24 NGZ =   24
   dimension x,y,z NGXF=    48 NGYF=   48 NGZF=   48
   support grid    NGXF=    48 NGYF=   48 NGZF=   48
   ions per type =               4
   NGX,Y,Z   is equivalent  to a cutoff of  10.50, 10.50, 10.50 a.u.
   NGXF,Y,Z  is equivalent  to a cutoff of  21.00, 21.00, 21.00 a.u.

 SYSTEM =  unknown system                          
 POSCAR =  Cu                                      

 Startparameter for this run:
   NWRITE =      2    write-flag & timer
   PREC   = accura    normal or accurate (medium, high low for compatibility)
   ISTART =      0    job   : 0-new  1-cont  2-samecut
   ICHARG =      2    charge: 1-file 2-atom 10-const
   ISPIN  =      1    spin polarized calculation?
   LNONCOLLINEAR =      F non collinear calculations
   LSORBIT =      F    spin-orbit coupling
   INIWAV =      1    electr: 0-lowe 1-rand  2-diag
   LASPH  =      F    aspherical Exc in radial PAW
   METAGGA=      F    non-selfconsistent MetaGGA calc.

 Electronic Relaxation 1
   ENCUT  =  300.0 eV  22.05 Ry    4.70 a.u.   5.37  5.37  5.37*2*pi/ulx,y,z
   ENINI  =  300.0     initial cutoff
   ENAUG  =  587.0 eV  augmentation charge cutoff
   NELM   =    100;   NELMIN=  4; NELMDL= -5     # of ELM steps 
   EDIFF  = 0.1E-04   stopping-criterion for ELM
   LREAL  =      F    real-space projection
   NLSPLINE    = F    spline interpolate recip. space projectors
   LCOMPAT=      F    compatible to vasp.4.4
   GGA_COMPAT  = T    GGA compatible to vasp.4.4-vasp.4.6
   LMAXPAW     = -100 max onsite density
   LMAXMIX     =    2 max onsite mixed and CHGCAR
   VOSKOWN=      0    Vosko Wilk Nusair interpolation
   ROPT   =    0.00000
 Ionic relaxation
   EDIFFG = 0.1E-03   stopping-criterion for IOM
   NSW    =      0    number of steps for IOM
   NBLOCK =      1;   KBLOCK =      1    inner block; outer block 
   IBRION =     -1    ionic relax: 0-MD 1-quasi-New 2-CG
   NFREE  =      0    steps in history (QN), initial steepest desc. (CG)
   ISIF   =      2    stress and relaxation
   IWAVPR =     10    prediction:  0-non 1-charg 2-wave 3-comb
   ISYM   =      2    0-nonsym 1-usesym 2-fastsym
   LCORR  =      T    Harris-Foulkes like correction to forces

   POTIM  = 0.5000    time-step for ionic-motion
   TEIN   =    0.0    initial temperature
   TEBEG  =    0.0;   TEEND  =   0.0 temperature during run
   SMASS  =  -3.00    Nose mass-parameter (am)
   estimated Nose-frequenzy (Omega)   =  0.10E-29 period in steps =****** mass=  -0.330E-27a.u.
   SCALEE = 1.0000    scale energy and forces
   NPACO  =    256;   APACO  = 16.0  distance and # of slots for P.C.
   PSTRESS=    0.0 pullay stress

  Mass of Ions in am
   POMASS =  63.55
  Ionic Valenz
   ZVAL   =  11.00
  Atomic Wigner-Seitz radii
   RWIGS  =  -1.00
  virtual crystal weights 
   VCA    =   1.00
   NELECT =      44.0000    total number of electrons
   NUPDOWN=      -1.0000    fix difference up-down

 DOS related values:
   EMIN   =  10.00;   EMAX   =-10.00  energy-range for DOS
   EFERMI =   0.00
   ISMEAR =     0;   SIGMA  =   0.05  broadening in eV -4-tet -1-fermi 0-gaus

 Electronic relaxation 2 (details)
   IALGO  =     68    algorithm
   LDIAG  =      T    sub-space diagonalisation (order eigenvalues)
   LSUBROT=      F    optimize rotation matrix (better conditioning)
   TURBO    =      0    0=normal 1=particle mesh
   IRESTART =      0    0=no restart 2=restart with 2 vectors
   NREBOOT  =      0    no. of reboots
   NMIN     =      0    reboot dimension
   EREF     =   0.00    reference energy to select bands
   IMIX   =      4    mixing-type and parameters
     AMIX     =   0.40;   BMIX     =  1.00
     AMIX_MAG =   1.60;   BMIX_MAG =  1.00
     AMIN     =   0.10
     WC   =   100.;   INIMIX=   1;  MIXPRE=   1;  MAXMIX= -45

 Intra band minimization:
   WEIMIN = 0.0000     energy-eigenvalue tresh-hold
   EBREAK =  0.96E-07  absolut break condition
   DEPER  =   0.30     relativ break condition  

   TIME   =   0.40     timestep for ELM

  volume/ion in A,a.u.               =      13.72        92.57
  Fermi-wavevector in a.u.,A,eV,Ry     =   1.520928  2.874138 31.473316  2.313223
  Thomas-Fermi vector in A             =   2.629713
 
 Write flags
   LWAVE        =      F    write WAVECAR
   LDOWNSAMPLE  =      F    k-point downsampling of WAVECAR
   LCHARG       =      T    write CHGCAR
   LVTOT        =      F    write LOCPOT, total local potential
   LVHAR        =      F    write LOCPOT, Hartree potential only
   LELF         =      F    write electronic localiz. function (ELF)
   LORBIT       =      0    0 simple, 1 ext, 2 COOP (PROOUT), +10 PAW based schemes


 Dipole corrections
   LMONO  =      F    monopole corrections only (constant potential shift)
   LDIPOL =      F    correct potential (dipole corrections)
   IDIPOL =      0    1-x, 2-y, 3-z, 4-all directions 
   EPSILON=  1.0000000 bulk dielectric constant

 Exchange correlation treatment:
   GGA     =    PE    GGA type
   LEXCH   =     8    internal setting for exchange type
   VOSKOWN=      0    Vosko Wilk Nusair interpolation
   LHFCALC =     F    Hartree Fock is set to
   LHFONE  =     F    Hartree Fock one center treatment
   AEXX    =    0.0000 exact exchange contribution

 Linear response parameters
   LEPSILON=     F    determine dielectric tensor
   LRPA    =     F    only Hartree local field effects (RPA)
   LNABLA  =     F    use nabla operator in PAW spheres
   LVEL    =     F    velocity operator in full k-point grid
   LINTERFAST=   F  fast interpolation
   KINTER  =     0    interpolate to denser k-point grid
   CSHIFT  =0.1000    complex shift for real part using Kramers Kronig
   OMEGAMAX=  -1.0    maximum frequency
   DEG_THRESHOLD= 0.2000000E-02 threshold for treating states as degnerate
   RTIME   =   -0.100 relaxation time in fs
  (WPLASMAI=    0.000 imaginary part of plasma frequency in eV, 0.658/RTIME)
   DFIELD  = 0.0000000 0.0000000 0.0000000 field for delta impulse in time
 
 Orbital magnetization related:
   ORBITALMAG=     F  switch on orbital magnetization
   LCHIMAG   =     F  perturbation theory with respect to B field
   DQ        =  0.001000  dq finite difference perturbation B field
   LLRAUG    =     F  two centre corrections for induced B field



--------------------------------------------------------------------------------------------------------


 Static calculation
 charge density and potential will be updated during run
 non-spin polarized calculation
 RMM-DIIS sequential band-by-band and
  variant of blocked Davidson during initial phase
 perform sub-space diagonalisation
    before iterative eigenvector-optimisation
 modified Broyden-mixing scheme, WC =      100.0
 initial mixing is a Kerker type mixing with AMIX =  0.4000 and BMIX =      1.0000
 Hartree-type preconditioning will be used
 using additional bands            4
 reciprocal scheme for non local part
 use partial core corrections
 calculate Harris-corrections to forces 
   (improved forces if not selfconsistent)
 use gradient corrections 
 use of overlap-Matrix (Vanderbilt PP)
 Gauss-broadening in eV      SIGMA  =   0.05


--------------------------------------------------------------------------------------------------------


  energy-cutoff  :      300.00
  volume of cell :       54.87
      direct lattice vectors                 reciprocal lattice vectors
     3.800000000  0.000000000  0.000000000     0.263157895  0.000000000  0.000000000
     0.000000000  3.800000000  0.000000000     0.000000000  0.263157895  0.000000000
     0.000000000  0.000000000  3.800000000     0.000000000  0.000000000  0.263157895

  length of vectors
     3.800000000  3.800000000  3.800000000     0.263157895  0.263157895  0.263157895


 
 k-points in units of 2pi/SCALE and weight: KPOINTS created by Atomic Simulation Env
   0.02192982  0.02192982  0.02192982       0.037
   0.06578947  0.02192982  0.02192982       0.111
   0.10964912  0.02192982  0.02192982       0.111
   0.06578947  0.06578947  0.02192982       0.111
   0.10964912  0.06578947  0.02192982       0.222
   0.10964912  0.10964912  0.02192982       0.111
   0.06578947  0.06578947  0.06578947       0.037
   0.10964912  0.06578947  0.06578947       0.111
   0.10964912  0.10964912  0.06578947       0.111
   0.10964912  0.10964912  0.10964912       0.037
 
 k-points in reciprocal lattice and weights: KPOINTS created by Atomic Simulation Env
   0.08333333  0.08333333  0.08333333       0.037
   0.25000000  0.08333333  0.08333333       0.111
   0.41666667  0.08333333  0.08333333       0.111
   0.25000000  0.25000000  0.08333333       0.111
   0.41666667  0.25000000  0.08333333       0.222
   0.41666667  0.41666667  0.08333333       0.111
   0.25000000  0.25000000  0.25000000       0.037
   0.41666667  0.25000000  0.25000000       0.111
   0.41666667  0.41666667  0.25000000       0.111
   0.41666667  0.41666667  0.41666667       0.037
 
 position of ions in fractional coordinates (direct lattice) 
   0.00000000  0.00000000  0.00000000
   0.00000000  0.50000000  0.50000000
   0.50000000  0.00000000  0.50000000
   0.50000000  0.50000000  0.00000000
 
 position of ions in cartesian coordinates  (Angst):
   0.00000000  0.00000000  0.00000000
   0.00000000  1.90000000  1.90000000
   1.90000000  0.00000000  1.90000000
   1.90000000  1.90000000  0.00000000
 


--------------------------------------------------------------------------------------------------------


 k-point  1 :   0.0833 0.0833 0.0833  plane waves:     655
 k-point  2 :   0.2500 0.0833 0.0833  plane waves:     660
 k-point  3 :   0.4167 0.0833 0.0833  plane waves:     644
 k-point  4 :   0.2500 0.2500 0.0833  plane waves:     651
 k-point  5 :   0.4167 0.2500 0.0833  plane waves:     645
 k-point  6 :   0.4167 0.4167 0.0833  plane waves:     648
 k-point  7 :   0.2500 0.2500 0.2500  plane waves:     654
 k-point  8 :   0.4167 0.2500 0.2500  plane waves:     648
 k-point  9 :   0.4167 0.4167 0.2500  plane waves:     645
 k-point 10 :   0.4167 0.4167 0.4167  plane waves:     648

 maximum and minimum number of plane-waves per node :       331      320

 maximum number of plane-waves:       660
 maximum index in each direction: 
   IXMAX=    5   IYMAX=    5   IZMAX=    5
   IXMIN=   -5   IYMIN=   -5   IZMIN=   -5


 parallel 3D FFT for wavefunctions:
    minimum data exchange during FFTs selected (reduces bandwidth)
 parallel 3D FFT for charge:
    minimum data exchange during FFTs selected (reduces bandwidth)


 total amount of memory used by VASP MPI-rank0    34102. kBytes
=======================================================================

   base      :      30000. kBytes
   nonl-proj :        496. kBytes
   fftplans  :       1169. kBytes
   grid      :       1645. kBytes
   one-center:         31. kBytes
   wavefun   :        761. kBytes
 
     INWAV:  cpu time    0.0000: real time    0.0000
 Broyden mixing: mesh for mixing (old mesh)
   NGX = 11   NGY = 11   NGZ = 11
  (NGX  = 48   NGY  = 48   NGZ  = 48)
  gives a total of   1331 points

 initial charge density was supplied:
 charge density of overlapping atoms calculated
 number of electron      44.0000000 magnetization 
 keeping initial charge density in first step


--------------------------------------------------------------------------------------------------------


 Maximum index for augmentation-charges         1721 (set IRDMAX)


--------------------------------------------------------------------------------------------------------


 First call to EWALD:  gamma=   0.466
 Maximum number of real-space cells 3x 3x 3
 Maximum number of reciprocal cells 3x 3x 3

    FEWALD:  cpu time    0.0029: real time    0.0029


--------------------------------------- Iteration      1(   1)  ---------------------------------------


    POTLOK:  cpu time    0.0260: real time    0.0452
    SETDIJ:  cpu time    0.0046: real time    0.0046
     EDDAV:  cpu time    0.1765: real time    0.1765
       DOS:  cpu time    0.0004: real time    0.0004
    --------------------------------------------
      LOOP:  cpu time    0.2076: real time    0.2268

 eigenvalue-minimisations  :   528
 total energy-change (2. order) : 0.2815358E+03  (-0.1439250E+04)
 number of electron      44.0000000 magnetization 
 augmentation part       44.0000000 magnetization 

 Free energy of the ion-electron system (eV)
  ---------------------------------------------------
  alpha Z        PSCENC =       213.24625660
  Ewald energy   TEWEN  =     -4204.49773138
  -Hartree energ DENC   =     -1566.23131134
  -exchange      EXHF   =         0.00000000
  -V(xc)+E(xc)   XCENC  =       181.59356110
  PAW double counting   =      4912.82663951    -5336.19386850
  entropy T*S    EENTRO =        -0.00014773
  eigenvalues    EBANDS =       517.03805984
  atomic energy  EATOM  =      5563.75431560
  Solvation  Ediel_sol  =         0.00000000
  ---------------------------------------------------
  free energy    TOTEN  =       281.53577372 eV

  energy without entropy =      281.53592144  energy(sigma->0) =      281.53584758


--------------------------------------------------------------------------------------------------------




--------------------------------------- Iteration      1(   2)  ---------------------------------------


     EDDAV:  cpu time    0.1325: real time    0.1325
       DOS:  cpu time    0.0004: real time    0.0004
    --------------------------------------------
      LOOP:  cpu time    0.1329: real time    0.1330

 eigenvalue-minimisations  :   520
 total energy-change (2. order) :-0.2796384E+03  (-0.2743909E+03)
 number of electron      44.0000000 magnetization 
 augmentation part       44.0000000 magnetization 

 Free energy of the ion-electron system (eV)
  ---------------------------------------------------
  alpha Z        PSCENC =       213.24625660
  Ewald energy   TEWEN  =     -4204.49773138
  -Hartree energ DENC   =     -1566.23131134
  -exchange      EXHF   =         0.00000000
  -V(xc)+E(xc)   XCENC  =       181.59356110
  PAW double counting   =      4912.82663951    -5336.19386850
  entropy T*S    EENTRO =        -0.00671012
  eigenvalues    EBANDS =       237.40619283
  atomic energy  EATOM  =      5563.75431560
  Solvation  Ediel_sol  =         0.00000000
  ---------------------------------------------------
  free energy    TOTEN  =         1.89734431 eV

  energy without entropy =        1.90405443  energy(sigma->0) =        1.90069937


--------------------------------------------------------------------------------------------------------




--------------------------------------- Iteration      1(   3)  ---------------------------------------


     EDDAV:  cpu time    0.1452: real time    0.1452
       DOS:  cpu time    0.0005: real time    0.0005
    --------------------------------------------
      LOOP:  cpu time    0.1457: real time    0.1457

 eigenvalue-minimisations  :   582
 total energy-change (2. order) :-0.1934913E+02  (-0.1836166E+02)
 number of electron      44.0000000 magnetization 
 augmentation part       44.0000000 magnetization 

 Free energy of the ion-electron system (eV)
  ---------------------------------------------------
  alpha Z        PSCENC =       213.24625660
  Ewald energy   TEWEN  =     -4204.49773138
  -Hartree energ DENC   =     -1566.23131134
  -exchange      EXHF   =         0.00000000
  -V(xc)+E(xc)   XCENC  =       181.59356110
  PAW double counting   =      4912.82663951    -5336.19386850
  entropy T*S    EENTRO =        -0.00631080
  eigenvalues    EBANDS =       218.05666003
  atomic energy  EATOM  =      5563.75431560
  Solvation  Ediel_sol  =         0.00000000
  ---------------------------------------------------
  free energy    TOTEN  =       -17.45178917 eV

  energy without entropy =      -17.44547837  energy(sigma->0) =      -17.44863377


--------------------------------------------------------------------------------------------------------




--------------------------------------- Iteration      1(   4)  ---------------------------------------


     EDDAV:  cpu time    0.1486: real time    0.1493
       DOS:  cpu time    0.0005: real time    0.0005
    --------------------------------------------
      LOOP:  cpu time    0.1491: real time    0.1498

 eigenvalue-minimisations  :   614
 total energy-change (2. order) :-0.4123904E+00  (-0.4104798E+00)
 number of electron      44.0000000 magnetization 
 augmentation part       44.0000000 magnetization 

 Free energy of the ion-electron system (eV)
  ---------------------------------------------------
  alpha Z        PSCENC =       213.24625660
  Ewald energy   TEWEN  =     -4204.49773138
  -Hartree energ DENC   =     -1566.23131134
  -exchange      EXHF   =         0.00000000
  -V(xc)+E(xc)   XCENC  =       181.59356110
  PAW double counting   =      4912.82663951    -5336.19386850
  entropy T*S    EENTRO =        -0.00634417
  eigenvalues    EBANDS =       217.64430298
  atomic energy  EATOM  =      5563.75431560
  Solvation  Ediel_sol  =         0.00000000
  ---------------------------------------------------
  free energy    TOTEN  =       -17.86417959 eV

  energy without entropy =      -17.85783542  energy(sigma->0) =      -17.86100751


--------------------------------------------------------------------------------------------------------




--------------------------------------- Iteration      1(   5)  ---------------------------------------


     EDDAV:  cpu time    0.1441: real time    0.1442
       DOS:  cpu time    0.0004: real time    0.0004
    CHARGE:  cpu time    0.0227: real time    0.0227
    MIXING:  cpu time    0.0009: real time    0.0009
    --------------------------------------------
      LOOP:  cpu time    0.1682: real time    0.1683

 eigenvalue-minimisations  :   660
 total energy-change (2. order) :-0.5146824E-02  (-0.5142518E-02)
 number of electron      43.9999746 magnetization 
 augmentation part       26.0527408 magnetization 

 Broyden mixing:
  rms(total) = 0.14719E+01    rms(broyden)= 0.14716E+01
  rms(prec ) = 0.33979E+01
  weight for this iteration     100.00

 Free energy of the ion-electron system (eV)
  ---------------------------------------------------
  alpha Z        PSCENC =       213.24625660
  Ewald energy   TEWEN  =     -4204.49773138
  -Hartree energ DENC   =     -1566.23131134
  -exchange      EXHF   =         0.00000000
  -V(xc)+E(xc)   XCENC  =       181.59356110
  PAW double counting   =      4912.82663951    -5336.19386850
  entropy T*S    EENTRO =        -0.00634479
  eigenvalues    EBANDS =       217.63915677
  atomic energy  EATOM  =      5563.75431560
  Solvation  Ediel_sol  =         0.00000000
  ---------------------------------------------------
  free energy    TOTEN  =       -17.86932642 eV

  energy without entropy =      -17.86298163  energy(sigma->0) =      -17.86615402


--------------------------------------------------------------------------------------------------------




--------------------------------------- Iteration      1(   6)  ---------------------------------------


    POTLOK:  cpu time    0.0167: real time    0.0167
    SETDIJ:  cpu time    0.0044: real time    0.0051
    EDDIAG:  cpu time    0.0525: real time    0.0527
  RMM-DIIS:  cpu time    0.1301: real time    0.1301
    ORTHCH:  cpu time    0.0027: real time    0.0027
       DOS:  cpu time    0.0002: real time    0.0002
    CHARGE:  cpu time    0.0162: real time    0.0162
    MIXING:  cpu time    0.0007: real time    0.0007
    --------------------------------------------
      LOOP:  cpu time    0.2236: real time    0.2245

 eigenvalue-minimisations  :   534
 total energy-change (2. order) : 0.1482630E+01  (-0.4424452E+01)
 number of electron      43.9999715 magnetization 
 augmentation part       29.5794231 magnetization 

 Broyden mixing:
  rms(total) = 0.92943E+00    rms(broyden)= 0.92886E+00
  rms(prec ) = 0.19418E+01
  weight for this iteration     100.00

 eigenvalues of (default mixing * dielectric matrix)
  average eigenvalue GAMMA=   0.6130
  0.6130

 Free energy of the ion-electron system (eV)
  ---------------------------------------------------
  alpha Z        PSCENC =       213.24625660
  Ewald energy   TEWEN  =     -4204.49773138
  -Hartree energ DENC   =     -1452.09901031
  -exchange      EXHF   =         0.00000000
  -V(xc)+E(xc)   XCENC  =       176.03259460
  PAW double counting   =      4900.40996252    -5300.13224946
  entropy T*S    EENTRO =        -0.00000000
  eigenvalues    EBANDS =        86.89916500
  atomic energy  EATOM  =      5563.75431560
  Solvation  Ediel_sol  =         0.00000000
  ---------------------------------------------------
  free energy    TOTEN  =       -16.38669683 eV

  energy without entropy =      -16.38669683  energy(sigma->0) =      -16.38669683


--------------------------------------------------------------------------------------------------------




--------------------------------------- Iteration      1(   7)  ---------------------------------------


    POTLOK:  cpu time    0.0134: real time    0.0134
    SETDIJ:  cpu time    0.0029: real time    0.0029
    EDDIAG:  cpu time    0.0341: real time    0.0341
  RMM-DIIS:  cpu time    0.0978: real time    0.0978
    ORTHCH:  cpu time    0.0026: real time    0.0026
       DOS:  cpu time    0.0004: real time    0.0004
    CHARGE:  cpu time    0.0165: real time    0.0165
    MIXING:  cpu time    0.0007: real time    0.0007
    --------------------------------------------
      LOOP:  cpu time    0.1684: real time    0.1684

 eigenvalue-minimisations  :   525
 total energy-change (2. order) : 0.1801265E+01  (-0.8409927E+00)
 number of electron      43.9999728 magnetization 
 augmentation part       28.1373343 magnetization 

 Broyden mixing:
  rms(total) = 0.76382E-01    rms(broyden)= 0.75913E-01
  rms(prec ) = 0.18718E+00
  weight for this iteration     100.00

 eigenvalues of (default mixing * dielectric matrix)
  average eigenvalue GAMMA=   1.1799
  1.7482  0.6116

 Free energy of the ion-electron system (eV)
  ---------------------------------------------------
  alpha Z        PSCENC =       213.24625660
  Ewald energy   TEWEN  =     -4204.49773138
  -Hartree energ DENC   =     -1491.58936303
  -exchange      EXHF   =         0.00000000
  -V(xc)+E(xc)   XCENC  =       178.07478292
  PAW double counting   =      4988.64989743    -5407.84857443
  entropy T*S    EENTRO =        -0.00202996
  eigenvalues    EBANDS =       145.62701442
  atomic energy  EATOM  =      5563.75431560
  Solvation  Ediel_sol  =         0.00000000
  ---------------------------------------------------
  free energy    TOTEN  =       -14.58543182 eV

  energy without entropy =      -14.58340186  energy(sigma->0) =      -14.58441684


--------------------------------------------------------------------------------------------------------




--------------------------------------- Iteration      1(   8)  ---------------------------------------


    POTLOK:  cpu time    0.0134: real time    0.0134
    SETDIJ:  cpu time    0.0029: real time    0.0029
    EDDIAG:  cpu time    0.0341: real time    0.0341
  RMM-DIIS:  cpu time    0.0991: real time    0.0991
    ORTHCH:  cpu time    0.0026: real time    0.0026
       DOS:  cpu time    0.0004: real time    0.0004
    CHARGE:  cpu time    0.0165: real time    0.0165
    MIXING:  cpu time    0.0006: real time    0.0006
    --------------------------------------------
      LOOP:  cpu time    0.1696: real time    0.1696

 eigenvalue-minimisations  :   534
 total energy-change (2. order) : 0.1264351E-01  (-0.9505951E-02)
 number of electron      43.9999728 magnetization 
 augmentation part       28.0742516 magnetization 

 Broyden mixing:
  rms(total) = 0.68724E-01    rms(broyden)= 0.68684E-01
  rms(prec ) = 0.16533E+00
  weight for this iteration     100.00

 eigenvalues of (default mixing * dielectric matrix)
  average eigenvalue GAMMA=   1.3223
  0.6353  0.9388  2.3929

 Free energy of the ion-electron system (eV)
  ---------------------------------------------------
  alpha Z        PSCENC =       213.24625660
  Ewald energy   TEWEN  =     -4204.49773138
  -Hartree energ DENC   =     -1485.51763105
  -exchange      EXHF   =         0.00000000
  -V(xc)+E(xc)   XCENC  =       177.85910094
  PAW double counting   =      5065.01103824    -5491.80729206
  entropy T*S    EENTRO =        -0.00305433
  eigenvalues    EBANDS =       147.38220912
  atomic energy  EATOM  =      5563.75431560
  Solvation  Ediel_sol  =         0.00000000
  ---------------------------------------------------
  free energy    TOTEN  =       -14.57278831 eV

  energy without entropy =      -14.56973398  energy(sigma->0) =      -14.57126114


--------------------------------------------------------------------------------------------------------




--------------------------------------- Iteration      1(   9)  ---------------------------------------


    POTLOK:  cpu time    0.0133: real time    0.0133
    SETDIJ:  cpu time    0.0029: real time    0.0029
    EDDIAG:  cpu time    0.0345: real time    0.0345
  RMM-DIIS:  cpu time    0.0961: real time    0.0961
    ORTHCH:  cpu time    0.0025: real time    0.0025
       DOS:  cpu time    0.0004: real time    0.0004
    CHARGE:  cpu time    0.0146: real time    0.0146
    MIXING:  cpu time    0.0006: real time    0.0006
    --------------------------------------------
      LOOP:  cpu time    0.1648: real time    0.1648

 eigenvalue-minimisations  :   548
 total energy-change (2. order) : 0.7790440E-02  (-0.2545857E-02)
 number of electron      43.9999727 magnetization 
 augmentation part       28.1732930 magnetization 

 Broyden mixing:
  rms(total) = 0.69985E-02    rms(broyden)= 0.69769E-02
  rms(prec ) = 0.14807E-01
  weight for this iteration     100.00

 eigenvalues of (default mixing * dielectric matrix)
  average eigenvalue GAMMA=   1.6113
  3.0049  0.6368  0.9126  1.8908

 Free energy of the ion-electron system (eV)
  ---------------------------------------------------
  alpha Z        PSCENC =       213.24625660
  Ewald energy   TEWEN  =     -4204.49773138
  -Hartree energ DENC   =     -1479.38872574
  -exchange      EXHF   =         0.00000000
  -V(xc)+E(xc)   XCENC  =       177.59167400
  PAW double counting   =      5097.46561491    -5526.05133905
  entropy T*S    EENTRO =        -0.00151761
  eigenvalues    EBANDS =       143.31645480
  atomic energy  EATOM  =      5563.75431560
  Solvation  Ediel_sol  =         0.00000000
  ---------------------------------------------------
  free energy    TOTEN  =       -14.56499787 eV

  energy without entropy =      -14.56348026  energy(sigma->0) =      -14.56423906


--------------------------------------------------------------------------------------------------------




--------------------------------------- Iteration      1(  10)  ---------------------------------------


    POTLOK:  cpu time    0.0114: real time    0.0114
    SETDIJ:  cpu time    0.0024: real time    0.0024
    EDDIAG:  cpu time    0.0315: real time    0.0316
  RMM-DIIS:  cpu time    0.0952: real time    0.0952
    ORTHCH:  cpu time    0.0024: real time    0.0024
       DOS:  cpu time    0.0004: real time    0.0004
    CHARGE:  cpu time    0.0146: real time    0.0146
    MIXING:  cpu time    0.0006: real time    0.0006
    --------------------------------------------
      LOOP:  cpu time    0.1586: real time    0.1586

 eigenvalue-minimisations  :   550
 total energy-change (2. order) :-0.1862492E-03  (-0.1560744E-03)
 number of electron      43.9999727 magnetization 
 augmentation part       28.1747122 magnetization 

 Broyden mixing:
  rms(total) = 0.62377E-02    rms(broyden)= 0.62372E-02
  rms(prec ) = 0.14037E-01
  weight for this iteration     100.00

 eigenvalues of (default mixing * dielectric matrix)
  average eigenvalue GAMMA=   1.6355
  3.1062  2.2581  0.6346  1.0305  1.1482

 Free energy of the ion-electron system (eV)
  ---------------------------------------------------
  alpha Z        PSCENC =       213.24625660
  Ewald energy   TEWEN  =     -4204.49773138
  -Hartree energ DENC   =     -1479.63352380
  -exchange      EXHF   =         0.00000000
  -V(xc)+E(xc)   XCENC  =       177.60425265
  PAW double counting   =      5099.11326290    -5527.56121801
  entropy T*S    EENTRO =        -0.00155004
  eigenvalues    EBANDS =       143.41075136
  atomic energy  EATOM  =      5563.75431560
  Solvation  Ediel_sol  =         0.00000000
  ---------------------------------------------------
  free energy    TOTEN  =       -14.56518411 eV

  energy without entropy =      -14.56363408  energy(sigma->0) =      -14.56440910


--------------------------------------------------------------------------------------------------------




--------------------------------------- Iteration      1(  11)  ---------------------------------------


    POTLOK:  cpu time    0.0115: real time    0.0115
    SETDIJ:  cpu time    0.0024: real time    0.0024
    EDDIAG:  cpu time    0.0316: real time    0.0317
  RMM-DIIS:  cpu time    0.0936: real time    0.0936
    ORTHCH:  cpu time    0.0024: real time    0.0024
       DOS:  cpu time    0.0004: real time    0.0004
    CHARGE:  cpu time    0.0146: real time    0.0146
    MIXING:  cpu time    0.0006: real time    0.0006
    --------------------------------------------
      LOOP:  cpu time    0.1571: real time    0.1571

 eigenvalue-minimisations  :   538
 total energy-change (2. order) : 0.1748087E-04  (-0.5835658E-04)
 number of electron      43.9999728 magnetization 
 augmentation part       28.1643963 magnetization 

 Broyden mixing:
  rms(total) = 0.19417E-02    rms(broyden)= 0.19393E-02
  rms(prec ) = 0.41269E-02
  weight for this iteration     100.00

 eigenvalues of (default mixing * dielectric matrix)
  average eigenvalue GAMMA=   1.4833
  2.6832  2.4015  0.6344  0.9695  0.9695  1.2415

 Free energy of the ion-electron system (eV)
  ---------------------------------------------------
  alpha Z        PSCENC =       213.24625660
  Ewald energy   TEWEN  =     -4204.49773138
  -Hartree energ DENC   =     -1480.20781858
  -exchange      EXHF   =         0.00000000
  -V(xc)+E(xc)   XCENC  =       177.63120294
  PAW double counting   =      5098.47312889    -5526.73665673
  entropy T*S    EENTRO =        -0.00166522
  eigenvalues    EBANDS =       143.77380125
  atomic energy  EATOM  =      5563.75431560
  Solvation  Ediel_sol  =         0.00000000
  ---------------------------------------------------
  free energy    TOTEN  =       -14.56516663 eV

  energy without entropy =      -14.56350141  energy(sigma->0) =      -14.56433402


--------------------------------------------------------------------------------------------------------




--------------------------------------- Iteration      1(  12)  ---------------------------------------


    POTLOK:  cpu time    0.0114: real time    0.0114
    SETDIJ:  cpu time    0.0024: real time    0.0024
    EDDIAG:  cpu time    0.0317: real time    0.0317
  RMM-DIIS:  cpu time    0.0734: real time    0.0734
    ORTHCH:  cpu time    0.0025: real time    0.0025
       DOS:  cpu time    0.0004: real time    0.0004
    --------------------------------------------
      LOOP:  cpu time    0.1218: real time    0.1218

 eigenvalue-minimisations  :   400
 total energy-change (2. order) : 0.5602451E-05  (-0.4451120E-05)
 number of electron      43.9999728 magnetization 
 augmentation part       28.1643963 magnetization 

 Free energy of the ion-electron system (eV)
  ---------------------------------------------------
  alpha Z        PSCENC =       213.24625660
  Ewald energy   TEWEN  =     -4204.49773138
  -Hartree energ DENC   =     -1480.10064131
  -exchange      EXHF   =         0.00000000
  -V(xc)+E(xc)   XCENC  =       177.62565392
  PAW double counting   =      5098.06051240    -5526.28307080
  entropy T*S    EENTRO =        -0.00161854
  eigenvalues    EBANDS =       143.63116248
  atomic energy  EATOM  =      5563.75431560
  Solvation  Ediel_sol  =         0.00000000
  ---------------------------------------------------
  free energy    TOTEN  =       -14.56516103 eV

  energy without entropy =      -14.56354249  energy(sigma->0) =      -14.56435176


--------------------------------------------------------------------------------------------------------




 average (electrostatic) potential at core
  the test charge radii are     0.9430
  (the norm of the test charge is              1.0000)
       1 -65.0728       2 -65.0728       3 -65.0728       4 -65.0728
 
 
 
 E-fermi :   5.7091     XC(G=0): -11.8762     alpha+bet :-11.5573


 k-point     1 :       0.0833    0.0833    0.0833
  band No.  band energies     occupation 
      1      -2.1730      2.00000
      2       1.8707      2.00000
      3       1.8707      2.00000
      4       1.8707      2.00000
      5       2.2315      2.00000
      6       2.2315      2.00000
      7       2.2315      2.00000
      8       3.2382      2.00000
      9       3.3154      2.00000
     10       3.3154      2.00000
     11       3.9215      2.00000
     12       3.9215      2.00000
     13       4.2688      2.00000
     14       4.2688      2.00000
     15       4.2688      2.00000
     16       4.3089      2.00000
     17       4.3089      2.00000
     18       4.3089      2.00000
     19       4.4675      2.00000
     20       4.4675      2.00000
     21       4.4675      2.00000
     22       7.2917      0.00000
     23       7.2917      0.00000
     24       7.2917      0.00000
     25      12.7686      0.00000
     26      12.7686      0.00000

 k-point     2 :       0.2500    0.0833    0.0833
  band No.  band energies     occupation 
      1      -1.5792      2.00000
      2       1.7533      2.00000
      3       2.1053      2.00000
      4       2.1053      2.00000
      5       2.3635      2.00000
      6       2.3774      2.00000
      7       2.3774      2.00000
      8       3.1085      2.00000
      9       3.4180      2.00000
     10       3.4218      2.00000
     11       3.7121      2.00000
     12       3.7121      2.00000
     13       3.8104      2.00000
     14       3.9544      2.00000
     15       3.9920      2.00000
     16       4.1503      2.00000
     17       4.1601      2.00000
     18       4.1601      2.00000
     19       4.3818      2.00000
     20       4.4510      2.00000
     21       4.4510      2.00000
     22       5.2618      2.00000
     23       8.3169      0.00000
     24       8.3169      0.00000
     25      13.1357      0.00000
     26      13.1358      0.00000

 k-point     3 :       0.4167    0.0833    0.0833
  band No.  band energies     occupation 
      1      -0.4545      2.00000
      2       0.9359      2.00000
      3       2.4119      2.00000
      4       2.4119      2.00000
      5       2.5966      2.00000
      6       2.6595      2.00000
      7       2.6595      2.00000
      8       2.8695      2.00000
      9       3.1230      2.00000
     10       3.1230      2.00000
     11       3.4891      2.00000
     12       3.5023      2.00000
     13       3.6246      2.00000
     14       3.8082      2.00000
     15       3.8909      2.00000
     16       3.9461      2.00000
     17       3.9461      2.00000
     18       4.1140      2.00000
     19       4.2027      2.00000
     20       4.2556      2.00000
     21       4.4447      2.00000
     22       4.4447      2.00000
     23       9.8263      0.00000
     24       9.8263      0.00000
     25      11.6879      0.00000
     26      11.6879      0.00000

 k-point     4 :       0.2500    0.2500    0.0833
  band No.  band energies     occupation 
      1      -1.0077      2.00000
      2       2.0361      2.00000
      3       2.0361      2.00000
      4       2.2756      2.00000
      5       2.4865      2.00000
      6       2.4934      2.00000
      7       2.4934      2.00000
      8       3.0632      2.00000
      9       3.4093      2.00000
     10       3.4093      2.00000
     11       3.4184      2.00000
     12       3.4604      2.00000
     13       3.4833      2.00000
     14       3.8121      2.00000
     15       4.0045      2.00000
     16       4.0497      2.00000
     17       4.0497      2.00000
     18       4.0597      2.00000
     19       4.3476      2.00000
     20       4.3476      2.00000
     21       4.3629      2.00000
     22       6.1270      0.00000
     23       6.1270      0.00000
     24       9.1306      0.00000
     25      11.1816      0.00000
     26      13.5508      0.00000

 k-point     5 :       0.4167    0.2500    0.0833
  band No.  band energies     occupation 
      1       0.0596      2.00000
      2       1.3317      2.00000
      3       2.4170      2.00000
      4       2.5030      2.00000
      5       2.6315      2.00000
      6       2.6933      2.00000
      7       2.7097      2.00000
      8       2.9069      2.00000
      9       2.9817      2.00000
     10       3.1300      2.00000
     11       3.2302      2.00000
     12       3.3584      2.00000
     13       3.5918      2.00000
     14       3.8083      2.00000
     15       3.8517      2.00000
     16       3.8671      2.00000
     17       3.8905      2.00000
     18       4.1480      2.00000
     19       4.2944      2.00000
     20       4.2951      2.00000
     21       4.3003      2.00000
     22       4.7793      2.00000
     23       7.3302      0.00000
     24       8.9198      0.00000
     25      10.6094      0.00000
     26      12.3645      0.00000

 k-point     6 :       0.4167    0.4167    0.0833
  band No.  band energies     occupation 
      1       0.9652      2.00000
      2       1.9074      2.00000
      3       1.9074      2.00000
      4       2.3085      2.00000
      5       2.8697      2.00000
      6       2.8837      2.00000
      7       2.8837      2.00000
      8       2.9322      2.00000
      9       3.0389      2.00000
     10       3.0389      2.00000
     11       3.0706      2.00000
     12       3.2529      2.00000
     13       3.5790      2.00000
     14       3.7057      2.00000
     15       3.7092      2.00000
     16       3.7092      2.00000
     17       3.8699      2.00000
     18       4.0710      2.00000
     19       4.0710      2.00000
     20       4.1352      2.00000
     21       4.7278      2.00000
     22       5.5773      1.99981
     23       5.5773      1.99981
     24       6.8830      0.00000
     25      11.8683      0.00000
     26      13.6182      0.00000

 k-point     7 :       0.2500    0.2500    0.2500
  band No.  band energies     occupation 
      1      -0.4746      2.00000
      2       2.1440      2.00000
      3       2.1440      2.00000
      4       2.1440      2.00000
      5       2.6384      2.00000
      6       2.6384      2.00000
      7       2.6384      2.00000
      8       3.0908      2.00000
      9       3.3120      2.00000
     10       3.3120      2.00000
     11       3.3120      2.00000
     12       3.4054      2.00000
     13       3.4054      2.00000
     14       3.7930      2.00000
     15       3.7930      2.00000
     16       3.7930      2.00000
     17       4.0026      2.00000
     18       4.0026      2.00000
     19       4.4173      2.00000
     20       4.4173      2.00000
     21       4.4173      2.00000
     22       6.7014      0.00000
     23       6.7014      0.00000
     24       6.7014      0.00000
     25      11.8610      0.00000
     26      11.8610      0.00000

 k-point     8 :       0.4167    0.2500    0.2500
  band No.  band energies     occupation 
      1       0.4867      2.00000
      2       1.5402      2.00000
      3       2.2235      2.00000
      4       2.2235      2.00000
      5       2.8200      2.00000
      6       2.8200      2.00000
      7       2.8914      2.00000
      8       3.0588      2.00000
      9       3.2225      2.00000
     10       3.2418      2.00000
     11       3.2418      2.00000
     12       3.3351      2.00000
     13       3.4367      2.00000
     14       3.5763      2.00000
     15       3.6652      2.00000
     16       3.6652      2.00000
     17       4.1567      2.00000
     18       4.2160      2.00000
     19       4.3566      2.00000
     20       4.3566      2.00000
     21       4.3699      2.00000
     22       4.9627      2.00000
     23       7.6131      0.00000
     24       7.6131      0.00000
     25       9.8707      0.00000
     26       9.8707      0.00000

 k-point     9 :       0.4167    0.4167    0.2500
  band No.  band energies     occupation 
      1       1.1609      2.00000
      2       1.7785      2.00000
      3       1.7785      2.00000
      4       1.9910      2.00000
      5       3.0207      2.00000
      6       3.0990      2.00000
      7       3.0990      2.00000
      8       3.2805      2.00000
      9       3.3403      2.00000
     10       3.3503      2.00000
     11       3.3503      2.00000
     12       3.3766      2.00000
     13       3.4551      2.00000
     14       3.4818      2.00000
     15       3.4818      2.00000
     16       3.4894      2.00000
     17       4.1341      2.00000
     18       4.3026      2.00000
     19       4.3026      2.00000
     20       4.3086      2.00000
     21       4.5957      2.00000
     22       5.6385      1.95415
     23       5.6385      1.95415
     24       6.8551      0.00000
     25       9.5362      0.00000
     26      10.9650      0.00000

 k-point    10 :       0.4167    0.4167    0.4167
  band No.  band energies     occupation 
      1       1.4124      2.00000
      2       1.6788      2.00000
      3       1.6788      2.00000
      4       1.6788      2.00000
      5       3.1945      2.00000
      6       3.1945      2.00000
      7       3.1945      2.00000
      8       3.2837      2.00000
      9       3.2837      2.00000
     10       3.3258      2.00000
     11       3.3258      2.00000
     12       3.3258      2.00000
     13       3.9110      2.00000
     14       3.9110      2.00000
     15       3.9110      2.00000
     16       4.2943      2.00000
     17       4.3256      2.00000
     18       4.3256      2.00000
     19       4.3896      2.00000
     20       4.3896      2.00000
     21       4.3896      2.00000
     22       5.7687      0.09209
     23       5.7687      0.09209
     24       5.7687      0.09209
     25       9.2462      0.00000
     26       9.2462      0.00000


--------------------------------------------------------------------------------------------------------


 soft charge-density along one line, spin component           1
         0         1         2         3         4         5         6         7         8         9
 total charge-density along one line
 
 pseudopotential strength for first ion, spin component:           1
 -3.901  -0.000   0.000  -0.000  -0.000  -3.969   0.000  -0.000
 -0.000  -3.901  -0.000  -0.000   0.000   0.000  -3.969   0.000
  0.000  -0.000  -3.886  -0.000   0.000  -0.000   0.000  -3.980
 -0.000  -0.000  -0.000  -3.901  -0.000   0.000   0.000   0.000
 -0.000   0.000   0.000  -0.000  -3.886   0.000  -0.000  -0.000
 -3.969   0.000  -0.000   0.000   0.000   9.765  -0.000   0.000
  0.000  -3.969   0.000   0.000  -0.000  -0.000   9.765  -0.000
 -0.000   0.000  -3.980   0.000  -0.000   0.000  -0.000   9.773
  0.000   0.000   0.000  -3.969   0.000  -0.000  -0.000  -0.000
  0.000  -0.000  -0.000   0.000  -3.980  -0.000   0.000   0.000
  0.000   0.000   0.000   0.000   0.000   0.000   0.000  -0.000
  0.000   0.000   0.000   0.000   0.000   0.000   0.000  -0.000
  0.000  -0.000   0.000  -0.000   0.000  -0.000   0.000   0.000
 -0.000  -0.000  -0.000   0.000  -0.000  -0.000   0.000   0.000
 -0.000  -0.000  -0.000  -0.000   0.000  -0.000  -0.000   0.000
  0.000  -0.000   0.000   0.000   0.000   0.000   0.000   0.000
  0.000  -0.000  -0.000   0.000   0.000  -0.000  -0.000   0.000
 -0.000   0.000  -0.000  -0.000   0.000  -0.000  -0.000   0.000
 total augmentation occupancy for first ion, spin component:           1
  1.906   0.000   0.000   0.000  -0.000  -0.023  -0.000   0.000   0.000  -0.000  -0.000  -0.000  -0.000   0.000   0.000  -0.000
 -0.000   1.906  -0.000   0.000   0.000  -0.000  -0.023  -0.000   0.000  -0.000  -0.000   0.000  -0.000  -0.000  -0.000  -0.000
  0.000  -0.000   1.926  -0.000   0.000   0.000   0.000  -0.038  -0.000   0.000  -0.000  -0.000   0.000   0.000   0.000   0.000
  0.000   0.000  -0.000   1.906  -0.000   0.000  -0.000  -0.000  -0.023   0.000  -0.000  -0.000   0.000   0.000   0.000   0.000
 -0.000  -0.000   0.000  -0.000   1.926  -0.000  -0.000   0.000  -0.000  -0.038  -0.000   0.000  -0.000  -0.000   0.000  -0.000
 -0.023  -0.000  -0.000   0.000  -0.000   0.012   0.000  -0.000  -0.000   0.000   0.000  -0.000  -0.000  -0.000  -0.000  -0.000
 -0.000  -0.023   0.000  -0.000  -0.000   0.000   0.012  -0.000  -0.000   0.000  -0.000  -0.000   0.000   0.000  -0.000  -0.000
 -0.000  -0.000  -0.038  -0.000  -0.000  -0.000   0.000   0.011   0.000  -0.000  -0.000  -0.000   0.000   0.000   0.000   0.000
 -0.000  -0.000  -0.000  -0.023   0.000  -0.000  -0.000   0.000   0.012   0.000  -0.000  -0.000   0.000   0.000   0.000   0.000
  0.000   0.000  -0.000  -0.000  -0.038   0.000   0.000   0.000   0.000   0.011   0.000   0.000   0.000   0.000   0.000  -0.000
  0.000   0.000  -0.000  -0.000  -0.000  -0.000  -0.000  -0.000   0.000   0.000   1.569  -0.135   0.000   0.000   0.000   0.000
 -0.000   0.000   0.000  -0.000  -0.000  -0.000  -0.000  -0.000  -0.000  -0.000  -0.135   0.016   0.000   0.000   0.000   0.000
 -0.000  -0.000  -0.000   0.000  -0.000  -0.000   0.000   0.000   0.000  -0.000   0.000   0.000   0.178   0.000   0.000  -0.011
  0.000  -0.000  -0.000   0.000   0.000  -0.000   0.000   0.000   0.000   0.000   0.000   0.000   0.000   0.178  -0.000  -0.000
  0.000  -0.000  -0.000   0.000  -0.000  -0.000  -0.000   0.000   0.000  -0.000   0.000   0.000   0.000  -0.000   0.178  -0.000
  0.000  -0.000  -0.000   0.000   0.000  -0.000  -0.000   0.000   0.000   0.000   0.000   0.000  -0.011  -0.000  -0.000   0.001
 -0.000  -0.000  -0.000  -0.000   0.000   0.000  -0.000   0.000   0.000  -0.000   0.000   0.000   0.000  -0.011   0.000   0.000
 -0.000  -0.000   0.000  -0.000   0.000   0.000   0.000  -0.000   0.000   0.000   0.000   0.000  -0.000  -0.000  -0.011  -0.000


------------------------ aborting loop because EDIFF is reached ----------------------------------------


    CHARGE:  cpu time    0.0146: real time    0.0146
    FORLOC:  cpu time    0.0009: real time    0.0009
    FORNL :  cpu time    0.0284: real time    0.0284
    STRESS:  cpu time    0.0498: real time    0.0498
    FORCOR:  cpu time    0.0121: real time    0.0121
    FORHAR:  cpu time    0.0029: real time    0.0029
    MIXING:  cpu time    0.0006: real time    0.0006
    OFIELD:  cpu time    0.0000: real time    0.0000

  FORCE on cell =-STRESS in cart. coord.  units (eV):
  Direction    XX          YY          ZZ          XY          YZ          ZX
  --------------------------------------------------------------------------------------
  Alpha Z   213.24626   213.24626   213.24626
  Ewald   -1401.49986 -1401.49986 -1401.49986     0.00000    -0.00000    -0.00000
  Hartree   493.41160   493.41160   493.41160    -0.00000    -0.00000    -0.00000
  E(xc)    -256.42702  -256.42702  -256.42702     0.00000    -0.00000     0.00000
  Local     305.30665   305.30665   305.30665     0.00000     0.00000     0.00000
  n-local   -88.51018   -95.64348   -97.79826     0.15291     2.73447     1.53211
  augment   378.57464   378.57464   378.57464    -0.00000    -0.00000     0.00000
  Kinetic   363.07191   355.94256   350.12024    -3.70872     0.01645    -0.99623
  Fock        0.00000     0.00000     0.00000     0.00000     0.00000     0.00000
  -------------------------------------------------------------------------------------
  Total      -4.99347    -4.99347    -4.99347    -0.00000     0.00000     0.00000
  in kB    -145.80172  -145.80172  -145.80172    -0.00000     0.00000     0.00000
  external pressure =     -145.80 kB  Pullay stress =        0.00 kB


 VOLUME and BASIS-vectors are now :
 -----------------------------------------------------------------------------
  energy-cutoff  :      300.00
  volume of cell :       54.87
      direct lattice vectors                 reciprocal lattice vectors
     3.800000000  0.000000000  0.000000000     0.263157895  0.000000000  0.000000000
     0.000000000  3.800000000  0.000000000     0.000000000  0.263157895  0.000000000
     0.000000000  0.000000000  3.800000000     0.000000000  0.000000000  0.263157895

  length of vectors
     3.800000000  3.800000000  3.800000000     0.263157895  0.263157895  0.263157895


 FORCES acting on ions
    electron-ion (+dipol)            ewald-force                    non-local-force                 convergence-correction
 -----------------------------------------------------------------------------------------------
   -.291E-13 -.854E-13 -.849E-13   0.634E-14 -.744E-14 0.131E-14   -.529E-22 0.232E-22 -.106E-21   0.591E-14 -.194E-13 -.339E-13
   -.294E-13 0.703E-12 0.693E-12   0.624E-14 0.171E-13 0.554E-14   0.000E+00 -.529E-22 -.529E-22   0.148E-13 -.174E-13 0.313E-13
   0.744E-12 -.811E-13 -.504E-11   -.489E-14 -.188E-13 0.561E-14   -.106E-21 0.106E-21 0.331E-22   -.225E-13 -.101E-13 0.433E-13
   0.734E-12 -.336E-11 -.487E-11   -.499E-14 0.576E-14 -.105E-13   -.159E-21 -.529E-22 -.265E-22   -.157E-13 0.648E-14 -.760E-13
 -----------------------------------------------------------------------------------------------
   0.142E-11 -.283E-11 -.930E-11   0.269E-14 -.337E-14 0.190E-14   -.318E-21 0.232E-22 -.152E-21   -.174E-13 -.404E-13 -.352E-13
 
 
 POSITION                                       TOTAL-FORCE (eV/Angst)
 -----------------------------------------------------------------------------------
      0.00000      0.00000      0.00000        -0.000000     -0.000000     -0.000000
      0.00000      1.90000      1.90000         0.000000      0.000000      0.000000
      1.90000      0.00000      1.90000        -0.000000     -0.000000     -0.000000
      1.90000      1.90000      0.00000        -0.000000      0.000000      0.000000
 -----------------------------------------------------------------------------------
    total drift:                                0.000000     -0.000000     -0.000000


--------------------------------------------------------------------------------------------------------



  FREE ENERGIE OF THE ION-ELECTRON SYSTEM (eV)
  ---------------------------------------------------
  free  energy   TOTEN  =       -14.56516103 eV

  energy  without entropy=      -14.56354249  energy(sigma->0) =      -14.56435176
 


--------------------------------------------------------------------------------------------------------


    POTLOK:  cpu time    0.0139: real time    0.0139


--------------------------------------------------------------------------------------------------------


     LOOP+:  cpu time    2.2448: real time    2.3221
    4ORBIT:  cpu time    0.0000: real time    0.0000

 total amount of memory used by VASP MPI-rank0    34102. kBytes
=======================================================================

   base      :      30000. kBytes
   nonl-proj :        496. kBytes
   fftplans  :       1169. kBytes
   grid      :       1645. kBytes
   one-center:         31. kBytes
   wavefun   :        761. kBytes
 
  
  
 General timing and accounting informations for this job:
 ========================================================
  
                  Total CPU time used (sec):        2.914
                            User time (sec):        2.720
                          System time (sec):        0.194
                         Elapsed time (sec):        3.488
  
                   Maximum memory used (kb):      161372.
                   Average memory used (kb):           0.
  
                          Minor page faults:        29570
                          Major page faults:            0
                 Voluntary context switches:         1174
