   4   4   0   0
  0.1371800E+02  0.3800000E-09  0.3800000E-09  0.3800000E-09  0.5000000E-15
  1.000000000000000E-004
  CAR 
 unknown system                          
     14.40770959     -2.96255883  301      5.70913972      1.00000000
     -2.963  0.0000E+00  0.0000E+00
     -2.905  0.0000E+00  0.0000E+00
     -2.847  0.0000E+00  0.0000E+00
     -2.789  0.0000E+00  0.0000E+00
     -2.731  0.0000E+00  0.0000E+00
     -2.673  0.0000E+00  0.0000E+00
     -2.615  0.0000E+00  0.0000E+00
     -2.557  0.0000E+00  0.0000E+00
     -2.499  0.0000E+00  0.0000E+00
     -2.441  0.2003E-13  0.1160E-14
     -2.384  0.1661E-08  0.9620E-10
     -2.326  0.1009E-04  0.5844E-06
     -2.268  0.4701E-02  0.2728E-03
     -2.210  0.1855E+00  0.1101E-01
     -2.152  0.7364E+00  0.5365E-01
     -2.094  0.3364E+00  0.7313E-01
     -2.036  0.1626E-01  0.7407E-01
     -1.978  0.6934E-04  0.7407E-01
     -1.920  0.2314E-07  0.7407E-01
     -1.862  0.5725E-12  0.7407E-01
     -1.805  0.3529E-09  0.7407E-01
     -1.747  0.4172E-05  0.7407E-01
     -1.689  0.3724E-02  0.7429E-01
     -1.631  0.2726E+00  0.9007E-01
     -1.573  0.1912E+01  0.2008E+00
     -1.515  0.1516E+01  0.2886E+00
     -1.457  0.1326E+00  0.2962E+00
     -1.399  0.1068E-02  0.2963E+00
     -1.341  0.6886E-06  0.2963E+00
     -1.283  0.3319E-10  0.2963E+00
     -1.226  0.1386E-08  0.2963E+00
     -1.168  0.1168E-04  0.2963E+00
     -1.110  0.7482E-02  0.2967E+00
     -1.052  0.3994E+00  0.3199E+00
     -0.994  0.2094E+01  0.4411E+00
     -0.936  0.1255E+01  0.5138E+00
     -0.878  0.8133E-01  0.5185E+00
     -0.820  0.4744E-03  0.5185E+00
     -0.762  0.2189E-06  0.5185E+00
     -0.704  0.6143E-10  0.5185E+00
     -0.647  0.8448E-06  0.5185E+00
     -0.589  0.1088E-02  0.5186E+00
     -0.531  0.1304E+00  0.5261E+00
     -0.473  0.1694E+01  0.6242E+00
     -0.415  0.2729E+01  0.7822E+00
     -0.357  0.5510E+00  0.8141E+00
     -0.299  0.1171E-01  0.8148E+00
     -0.241  0.2166E-04  0.8148E+00
     -0.183  0.3138E-08  0.8148E+00
     -0.125  0.6428E-06  0.8148E+00
     -0.068  0.1247E-02  0.8149E+00
     -0.010  0.1921E+00  0.8260E+00
      0.048  0.2684E+01  0.9814E+00
      0.106  0.4080E+01  0.1218E+01
      0.164  0.7070E+00  0.1259E+01
      0.222  0.1194E-01  0.1259E+01
      0.280  0.1670E-04  0.1259E+01
      0.338  0.4855E-04  0.1259E+01
      0.396  0.1922E-01  0.1260E+01
      0.454  0.6503E+00  0.1298E+01
      0.511  0.2241E+01  0.1428E+01
      0.569  0.8903E+00  0.1479E+01
      0.627  0.3700E-01  0.1481E+01
      0.685  0.1343E-03  0.1481E+01
      0.743  0.1338E-06  0.1481E+01
      0.801  0.2678E-03  0.1481E+01
      0.859  0.6133E-01  0.1485E+01
      0.917  0.1398E+01  0.1566E+01
      0.975  0.4182E+01  0.1808E+01
      1.033  0.1915E+01  0.1919E+01
      1.091  0.2087E+00  0.1931E+01
      1.148  0.1302E+01  0.2006E+01
      1.206  0.2068E+01  0.2126E+01
      1.264  0.5889E+00  0.2160E+01
      1.322  0.2814E+01  0.2323E+01
      1.380  0.4224E+01  0.2568E+01
      1.438  0.1405E+01  0.2649E+01
      1.496  0.6927E+00  0.2689E+01
      1.554  0.2100E+01  0.2811E+01
      1.612  0.1376E+01  0.2890E+01
      1.670  0.1538E+01  0.2979E+01
      1.727  0.3410E+01  0.3177E+01
      1.785  0.6455E+01  0.3551E+01
      1.843  0.4749E+01  0.3826E+01
      1.901  0.5583E+01  0.4149E+01
      1.959  0.5342E+01  0.4458E+01
      2.017  0.5005E+01  0.4748E+01
      2.075  0.6778E+01  0.5140E+01
      2.133  0.6957E+01  0.5543E+01
      2.191  0.5492E+01  0.5861E+01
      2.249  0.8044E+01  0.6327E+01
      2.306  0.7216E+01  0.6745E+01
      2.364  0.8142E+01  0.7216E+01
      2.422  0.1428E+02  0.8043E+01
      2.480  0.1277E+02  0.8783E+01
      2.538  0.1127E+02  0.9435E+01
      2.596  0.5869E+01  0.9775E+01
      2.654  0.1286E+02  0.1052E+02
      2.712  0.1507E+02  0.1139E+02
      2.770  0.6807E+01  0.1179E+02
      2.828  0.5901E+01  0.1213E+02
      2.885  0.1466E+02  0.1298E+02
      2.943  0.1545E+02  0.1387E+02
      3.001  0.1024E+02  0.1446E+02
      3.059  0.1546E+02  0.1536E+02
      3.117  0.2105E+02  0.1658E+02
      3.175  0.1498E+02  0.1745E+02
      3.233  0.1443E+02  0.1828E+02
      3.291  0.1878E+02  0.1937E+02
      3.349  0.2173E+02  0.2063E+02
      3.407  0.2455E+02  0.2205E+02
      3.464  0.2481E+02  0.2348E+02
      3.522  0.1939E+02  0.2461E+02
      3.580  0.1084E+02  0.2523E+02
      3.638  0.1165E+02  0.2591E+02
      3.696  0.1314E+02  0.2667E+02
      3.754  0.1360E+02  0.2746E+02
      3.812  0.1498E+02  0.2833E+02
      3.870  0.2286E+02  0.2965E+02
      3.928  0.2142E+02  0.3089E+02
      3.986  0.1482E+02  0.3175E+02
      4.043  0.1340E+02  0.3252E+02
      4.101  0.1582E+02  0.3344E+02
      4.159  0.2091E+02  0.3465E+02
      4.217  0.1656E+02  0.3561E+02
      4.275  0.1766E+02  0.3663E+02
      4.333  0.3326E+02  0.3856E+02
      4.391  0.2666E+02  0.4010E+02
      4.449  0.1762E+02  0.4112E+02
      4.507  0.1009E+02  0.4170E+02
      4.565  0.1974E+01  0.4182E+02
      4.622  0.2275E+01  0.4195E+02
      4.680  0.1188E+01  0.4202E+02
      4.738  0.2976E+01  0.4219E+02
      4.796  0.5671E+01  0.4252E+02
      4.854  0.2405E+01  0.4266E+02
      4.912  0.4181E+00  0.4268E+02
      4.970  0.1937E+01  0.4280E+02
      5.028  0.1486E+01  0.4288E+02
      5.086  0.1254E+00  0.4289E+02
      5.144  0.2548E-02  0.4289E+02
      5.201  0.1667E+00  0.4290E+02
      5.259  0.1644E+01  0.4299E+02
      5.317  0.1802E+01  0.4310E+02
      5.375  0.2218E+00  0.4311E+02
      5.433  0.2759E-02  0.4311E+02
      5.491  0.5611E-01  0.4311E+02
      5.549  0.1605E+01  0.4321E+02
      5.607  0.5879E+01  0.4355E+02
      5.665  0.6001E+01  0.4390E+02
      5.723  0.2112E+01  0.4402E+02
      5.780  0.2118E+01  0.4414E+02
      5.838  0.1325E+01  0.4422E+02
      5.896  0.9293E-01  0.4422E+02
      5.954  0.5944E-03  0.4422E+02
      6.012  0.4424E-02  0.4422E+02
      6.070  0.4057E+00  0.4425E+02
      6.128  0.3505E+01  0.4445E+02
      6.186  0.3391E+01  0.4465E+02
      6.244  0.3660E+00  0.4467E+02
      6.302  0.3700E-02  0.4467E+02
      6.359  0.3024E-05  0.4467E+02
      6.417  0.1855E-09  0.4467E+02
      6.475  0.3069E-09  0.4467E+02
      6.533  0.3753E-05  0.4467E+02
      6.591  0.3464E-02  0.4467E+02
      6.649  0.2617E+00  0.4468E+02
      6.707  0.1890E+01  0.4479E+02
      6.765  0.1564E+01  0.4488E+02
      6.823  0.9745E+00  0.4494E+02
      6.881  0.3892E+01  0.4516E+02
      6.938  0.2669E+01  0.4532E+02
      6.996  0.2560E+00  0.4533E+02
      7.054  0.2690E-02  0.4533E+02
      7.112  0.3202E-05  0.4533E+02
      7.170  0.1145E-02  0.4533E+02
      7.228  0.1513E+00  0.4534E+02
      7.286  0.2326E+01  0.4548E+02
      7.344  0.6081E+01  0.4583E+02
      7.402  0.2786E+01  0.4599E+02
      7.460  0.1678E+00  0.4600E+02
      7.518  0.2730E-01  0.4600E+02
      7.575  0.1074E+01  0.4606E+02
      7.633  0.4399E+01  0.4632E+02
      7.691  0.2072E+01  0.4644E+02
      7.749  0.1035E+00  0.4644E+02
      7.807  0.4570E-03  0.4644E+02
      7.865  0.1581E-06  0.4644E+02
      7.923  0.4045E-11  0.4644E+02
      7.981  0.0000E+00  0.4644E+02
      8.039  0.1364E-13  0.4644E+02
      8.097  0.1755E-08  0.4644E+02
      8.154  0.1657E-04  0.4644E+02
      8.212  0.1188E-01  0.4645E+02
      8.270  0.7051E+00  0.4649E+02
      8.328  0.4077E+01  0.4672E+02
      8.386  0.2687E+01  0.4688E+02
      8.444  0.1928E+00  0.4689E+02
      8.502  0.1254E-02  0.4689E+02
      8.560  0.6482E-06  0.4689E+02
      8.618  0.2493E-10  0.4689E+02
      8.676  0.1873E-10  0.4689E+02
      8.733  0.5198E-06  0.4689E+02
      8.791  0.1072E-02  0.4689E+02
      8.849  0.1752E+00  0.4690E+02
      8.907  0.2588E+01  0.4705E+02
      8.965  0.4142E+01  0.4729E+02
      9.023  0.7614E+00  0.4733E+02
      9.081  0.3148E+00  0.4735E+02
      9.139  0.1966E+01  0.4746E+02
      9.197  0.1653E+01  0.4756E+02
      9.255  0.1429E+01  0.4764E+02
      9.312  0.9650E+00  0.4770E+02
      9.370  0.7775E-01  0.4770E+02
      9.428  0.4912E-02  0.4770E+02
      9.486  0.2967E+00  0.4772E+02
      9.544  0.1955E+01  0.4783E+02
      9.602  0.1461E+01  0.4792E+02
      9.660  0.1199E+00  0.4793E+02
      9.718  0.9143E-02  0.4793E+02
      9.776  0.6020E+00  0.4796E+02
      9.834  0.4976E+01  0.4825E+02
      9.891  0.7376E+01  0.4868E+02
      9.949  0.2287E+01  0.4881E+02
     10.007  0.1016E+00  0.4881E+02
     10.065  0.4316E-03  0.4881E+02
     10.123  0.1456E-06  0.4881E+02
     10.181  0.3635E-11  0.4881E+02
     10.239  0.0000E+00  0.4881E+02
     10.297  0.0000E+00  0.4881E+02
     10.355  0.2208E-11  0.4881E+02
     10.413  0.9862E-07  0.4881E+02
     10.470  0.3248E-03  0.4881E+02
     10.528  0.8350E-01  0.4882E+02
     10.586  0.1882E+01  0.4893E+02
     10.644  0.4459E+01  0.4919E+02
     10.702  0.1217E+01  0.4926E+02
     10.760  0.3367E-01  0.4926E+02
     10.818  0.1401E-03  0.4926E+02
     10.876  0.2225E-01  0.4926E+02
     10.934  0.6989E+00  0.4930E+02
     10.992  0.2249E+01  0.4943E+02
     11.049  0.8354E+00  0.4948E+02
     11.107  0.1006E+00  0.4949E+02
     11.165  0.1168E+01  0.4955E+02
     11.223  0.2141E+01  0.4968E+02
     11.281  0.4500E+00  0.4970E+02
     11.339  0.9369E-02  0.4970E+02
     11.397  0.1634E-04  0.4970E+02
     11.455  0.2336E-08  0.4970E+02
     11.513  0.2739E-05  0.4970E+02
     11.571  0.3454E-02  0.4970E+02
     11.628  0.3517E+00  0.4972E+02
     11.686  0.3347E+01  0.4992E+02
     11.744  0.3550E+01  0.5012E+02
     11.802  0.6606E+00  0.5016E+02
     11.860  0.2582E+01  0.5031E+02
     11.918  0.3134E+01  0.5049E+02
     11.976  0.4382E+00  0.5052E+02
     12.034  0.5977E-02  0.5052E+02
     12.092  0.6814E-05  0.5052E+02
     12.150  0.5252E-08  0.5052E+02
     12.207  0.3438E-04  0.5052E+02
     12.265  0.1939E-01  0.5052E+02
     12.323  0.9164E+00  0.5057E+02
     12.381  0.4296E+01  0.5082E+02
     12.439  0.2310E+01  0.5096E+02
     12.497  0.1331E+00  0.5096E+02
     12.555  0.6850E-03  0.5096E+02
     12.613  0.1364E-04  0.5096E+02
     12.671  0.7156E-02  0.5096E+02
     12.729  0.3222E+00  0.5098E+02
     12.786  0.1445E+01  0.5107E+02
     12.844  0.7436E+00  0.5111E+02
     12.902  0.4089E-01  0.5111E+02
     12.960  0.2027E-03  0.5111E+02
     13.018  0.3351E-02  0.5111E+02
     13.076  0.3455E+00  0.5113E+02
     13.134  0.3327E+01  0.5132E+02
     13.192  0.3566E+01  0.5153E+02
     13.250  0.4289E+00  0.5156E+02
     13.308  0.4874E-02  0.5156E+02
     13.365  0.4808E-05  0.5156E+02
     13.423  0.6009E-03  0.5156E+02
     13.481  0.9413E-01  0.5156E+02
     13.539  0.1379E+01  0.5164E+02
     13.597  0.3057E+01  0.5182E+02
     13.655  0.2569E+01  0.5197E+02
     13.713  0.5626E+00  0.5200E+02
     13.771  0.1411E-01  0.5200E+02
     13.829  0.3027E-04  0.5200E+02
     13.887  0.4984E-08  0.5200E+02
     13.945  0.6008E-13  0.5200E+02
     14.002  0.0000E+00  0.5200E+02
     14.060  0.0000E+00  0.5200E+02
     14.118  0.0000E+00  0.5200E+02
     14.176  0.0000E+00  0.5200E+02
     14.234  0.0000E+00  0.5200E+02
     14.292  0.0000E+00  0.5200E+02
     14.350  0.0000E+00  0.5200E+02
     14.408  0.0000E+00  0.5200E+02
