    4    4    1    1
  0.1371800E+02  0.3800000E-09  0.3800000E-09  0.3800000E-09  0.5000000E-15
  1.000000000000000E-004
  CAR 
 unknown system                          
     44     10     26
 
  0.8333333E-01  0.8333333E-01  0.8333333E-01  0.3703704E-01
    1       -2.173001   1.000000
    2        1.870738   1.000000
    3        1.870738   1.000000
    4        1.870738   1.000000
    5        2.231497   1.000000
    6        2.231497   1.000000
    7        2.231497   1.000000
    8        3.238169   1.000000
    9        3.315357   1.000000
   10        3.315357   1.000000
   11        3.921470   1.000000
   12        3.921470   1.000000
   13        4.268795   1.000000
   14        4.268795   1.000000
   15        4.268795   1.000000
   16        4.308891   1.000000
   17        4.308891   1.000000
   18        4.308891   1.000000
   19        4.467502   1.000000
   20        4.467502   1.000000
   21        4.467502   1.000000
   22        7.291668   0.000000
   23        7.291668   0.000000
   24        7.291668   0.000000
   25       12.768621   0.000000
   26       12.768621   0.000000
 
  0.2500000E+00  0.8333333E-01  0.8333333E-01  0.1111111E+00
    1       -1.579179   1.000000
    2        1.753329   1.000000
    3        2.105270   1.000000
    4        2.105270   1.000000
    5        2.363479   1.000000
    6        2.377408   1.000000
    7        2.377408   1.000000
    8        3.108471   1.000000
    9        3.418015   1.000000
   10        3.421822   1.000000
   11        3.712083   1.000000
   12        3.712083   1.000000
   13        3.810386   1.000000
   14        3.954379   1.000000
   15        3.992047   1.000000
   16        4.150303   1.000000
   17        4.160111   1.000000
   18        4.160111   1.000000
   19        4.381835   1.000000
   20        4.450993   1.000000
   21        4.450993   1.000000
   22        5.261842   1.000000
   23        8.316887   0.000000
   24        8.316887   0.000000
   25       13.135733   0.000000
   26       13.135791   0.000000
 
  0.4166667E+00  0.8333333E-01  0.8333333E-01  0.1111111E+00
    1       -0.454519   1.000000
    2        0.935878   1.000000
    3        2.411859   1.000000
    4        2.411859   1.000000
    5        2.596614   1.000000
    6        2.659546   1.000000
    7        2.659546   1.000000
    8        2.869550   1.000000
    9        3.123019   1.000000
   10        3.123019   1.000000
   11        3.489119   1.000000
   12        3.502252   1.000000
   13        3.624559   1.000000
   14        3.808159   1.000000
   15        3.890891   1.000000
   16        3.946120   1.000000
   17        3.946120   1.000000
   18        4.113962   1.000000
   19        4.202692   1.000000
   20        4.255552   1.000000
   21        4.444700   1.000000
   22        4.444700   1.000000
   23        9.826307   0.000000
   24        9.826307   0.000000
   25       11.687941   0.000000
   26       11.687941   0.000000
 
  0.2500000E+00  0.2500000E+00  0.8333333E-01  0.1111111E+00
    1       -1.007705   1.000000
    2        2.036127   1.000000
    3        2.036127   1.000000
    4        2.275646   1.000000
    5        2.486535   1.000000
    6        2.493379   1.000000
    7        2.493379   1.000000
    8        3.063234   1.000000
    9        3.409257   1.000000
   10        3.409257   1.000000
   11        3.418435   1.000000
   12        3.460421   1.000000
   13        3.483342   1.000000
   14        3.812105   1.000000
   15        4.004482   1.000000
   16        4.049729   1.000000
   17        4.049729   1.000000
   18        4.059718   1.000000
   19        4.347581   1.000000
   20        4.347581   1.000000
   21        4.362854   1.000000
   22        6.126989   0.000000
   23        6.126989   0.000000
   24        9.130587   0.000000
   25       11.181566   0.000000
   26       13.550817   0.000000
 
  0.4166667E+00  0.2500000E+00  0.8333333E-01  0.2222222E+00
    1        0.059571   1.000000
    2        1.331716   1.000000
    3        2.417039   1.000000
    4        2.502990   1.000000
    5        2.631536   1.000000
    6        2.693268   1.000000
    7        2.709659   1.000000
    8        2.906853   1.000000
    9        2.981660   1.000000
   10        3.130031   1.000000
   11        3.230152   1.000000
   12        3.358428   1.000000
   13        3.591839   1.000000
   14        3.808330   1.000000
   15        3.851733   1.000000
   16        3.867146   1.000000
   17        3.890482   1.000000
   18        4.148048   1.000000
   19        4.294425   1.000000
   20        4.295070   1.000000
   21        4.300347   1.000000
   22        4.779316   1.000000
   23        7.330162   0.000000
   24        8.919791   0.000000
   25       10.609424   0.000000
   26       12.364483   0.000000
 
  0.4166667E+00  0.4166667E+00  0.8333333E-01  0.1111111E+00
    1        0.965209   1.000000
    2        1.907352   1.000000
    3        1.907352   1.000000
    4        2.308465   1.000000
    5        2.869710   1.000000
    6        2.883728   1.000000
    7        2.883728   1.000000
    8        2.932211   1.000000
    9        3.038854   1.000000
   10        3.038854   1.000000
   11        3.070564   1.000000
   12        3.252938   1.000000
   13        3.578988   1.000000
   14        3.705653   1.000000
   15        3.709246   1.000000
   16        3.709246   1.000000
   17        3.869912   1.000000
   18        4.070996   1.000000
   19        4.070996   1.000000
   20        4.135186   1.000000
   21        4.727774   1.000000
   22        5.577285   0.999904
   23        5.577285   0.999904
   24        6.882990   0.000000
   25       11.868314   0.000000
   26       13.618152   0.000000
 
  0.2500000E+00  0.2500000E+00  0.2500000E+00  0.3703704E-01
    1       -0.474567   1.000000
    2        2.143953   1.000000
    3        2.143953   1.000000
    4        2.143953   1.000000
    5        2.638351   1.000000
    6        2.638351   1.000000
    7        2.638351   1.000000
    8        3.090817   1.000000
    9        3.312031   1.000000
   10        3.312031   1.000000
   11        3.312031   1.000000
   12        3.405429   1.000000
   13        3.405429   1.000000
   14        3.793049   1.000000
   15        3.793049   1.000000
   16        3.793049   1.000000
   17        4.002632   1.000000
   18        4.002632   1.000000
   19        4.417292   1.000000
   20        4.417292   1.000000
   21        4.417292   1.000000
   22        6.701406   0.000000
   23        6.701406   0.000000
   24        6.701406   0.000000
   25       11.860973   0.000000
   26       11.860972   0.000000
 
  0.4166667E+00  0.2500000E+00  0.2500000E+00  0.1111111E+00
    1        0.486712   1.000000
    2        1.540238   1.000000
    3        2.223518   1.000000
    4        2.223518   1.000000
    5        2.819983   1.000000
    6        2.819983   1.000000
    7        2.891450   1.000000
    8        3.058764   1.000000
    9        3.222467   1.000000
   10        3.241759   1.000000
   11        3.241759   1.000000
   12        3.335102   1.000000
   13        3.436708   1.000000
   14        3.576318   1.000000
   15        3.665153   1.000000
   16        3.665153   1.000000
   17        4.156707   1.000000
   18        4.216040   1.000000
   19        4.356610   1.000000
   20        4.356610   1.000000
   21        4.369851   1.000000
   22        4.962736   1.000000
   23        7.613062   0.000000
   24        7.613062   0.000000
   25        9.870678   0.000000
   26        9.870678   0.000000
 
  0.4166667E+00  0.4166667E+00  0.2500000E+00  0.1111111E+00
    1        1.160865   1.000000
    2        1.778459   1.000000
    3        1.778459   1.000000
    4        1.991006   1.000000
    5        3.020704   1.000000
    6        3.098988   1.000000
    7        3.098988   1.000000
    8        3.280549   1.000000
    9        3.340349   1.000000
   10        3.350290   1.000000
   11        3.350290   1.000000
   12        3.376581   1.000000
   13        3.455069   1.000000
   14        3.481752   1.000000
   15        3.481752   1.000000
   16        3.489404   1.000000
   17        4.134112   1.000000
   18        4.302620   1.000000
   19        4.302620   1.000000
   20        4.308550   1.000000
   21        4.595651   1.000000
   22        5.638545   0.977073
   23        5.638545   0.977073
   24        6.855140   0.000000
   25        9.536184   0.000000
   26       10.964968   0.000000
 
  0.4166667E+00  0.4166667E+00  0.4166667E+00  0.3703704E-01
    1        1.412364   1.000000
    2        1.678753   1.000000
    3        1.678753   1.000000
    4        1.678753   1.000000
    5        3.194508   1.000000
    6        3.194508   1.000000
    7        3.194508   1.000000
    8        3.283662   1.000000
    9        3.283662   1.000000
   10        3.325846   1.000000
   11        3.325846   1.000000
   12        3.325846   1.000000
   13        3.910983   1.000000
   14        3.910983   1.000000
   15        3.910983   1.000000
   16        4.294268   1.000000
   17        4.325603   1.000000
   18        4.325603   1.000000
   19        4.389618   1.000000
   20        4.389618   1.000000
   21        4.389618   1.000000
   22        5.768694   0.046046
   23        5.768694   0.046046
   24        5.768694   0.046046
   25        9.246249   0.000000
   26        9.246249   0.000000
