   4   4   0   0
  0.1723025E+02  0.4100000E-09  0.4100000E-09  0.4100000E-09  0.5000000E-15
  1.000000000000000E-004
  CAR 
 unknown system                          
     11.01458215     -3.57877317  301      3.72913632      1.00000000
     -3.579  0.0000E+00  0.0000E+00
     -3.530  0.0000E+00  0.0000E+00
     -3.481  0.0000E+00  0.0000E+00
     -3.433  0.0000E+00  0.0000E+00
     -3.384  0.0000E+00  0.0000E+00
     -3.336  0.0000E+00  0.0000E+00
     -3.287  0.0000E+00  0.0000E+00
     -3.238  0.0000E+00  0.0000E+00
     -3.190  0.6762E-14  0.3290E-15
     -3.141  0.1357E-09  0.6599E-11
     -3.092  0.4292E-06  0.2089E-07
     -3.044  0.2176E-03  0.1061E-04
     -2.995  0.1833E-01  0.9022E-03
     -2.946  0.2717E+00  0.1412E-01
     -2.898  0.7628E+00  0.5123E-01
     -2.849  0.4235E+00  0.7183E-01
     -2.800  0.4529E-01  0.7403E-01
     -2.752  0.8695E-03  0.7407E-01
     -2.703  0.2810E-05  0.7407E-01
     -2.655  0.1474E-08  0.7407E-01
     -2.606  0.4589E-07  0.7407E-01
     -2.557  0.5209E-04  0.7408E-01
     -2.509  0.9642E-02  0.7455E-01
     -2.460  0.3053E+00  0.8940E-01
     -2.411  0.1773E+01  0.1757E+00
     -2.363  0.2012E+01  0.2735E+00
     -2.314  0.4489E+00  0.2954E+00
     -2.265  0.1858E-01  0.2963E+00
     -2.217  0.1328E-03  0.2963E+00
     -2.168  0.1558E-06  0.2963E+00
     -2.119  0.1912E-07  0.2963E+00
     -2.071  0.2645E-04  0.2963E+00
     -2.022  0.5955E-02  0.2966E+00
     -1.974  0.2279E+00  0.3077E+00
     -1.925  0.1586E+01  0.3848E+00
     -1.876  0.2147E+01  0.4892E+00
     -1.828  0.5729E+00  0.5171E+00
     -1.779  0.2859E-01  0.5185E+00
     -1.730  0.2482E-03  0.5185E+00
     -1.682  0.3551E-06  0.5185E+00
     -1.633  0.2854E-06  0.5185E+00
     -1.584  0.1940E-03  0.5185E+00
     -1.536  0.2357E-01  0.5197E+00
     -1.487  0.5437E+00  0.5461E+00
     -1.438  0.2532E+01  0.6693E+00
     -1.390  0.2474E+01  0.7896E+00
     -1.341  0.4985E+00  0.8139E+00
     -1.292  0.1926E-01  0.8148E+00
     -1.244  0.1314E-03  0.8148E+00
     -1.195  0.1689E-06  0.8148E+00
     -1.147  0.3161E-04  0.8148E+00
     -1.098  0.8226E-02  0.8152E+00
     -1.049  0.3623E+00  0.8328E+00
     -1.001  0.2885E+01  0.9732E+00
     -0.952  0.4448E+01  0.1190E+01
     -0.903  0.1355E+01  0.1255E+01
     -0.855  0.7760E-01  0.1259E+01
     -0.806  0.7774E-03  0.1259E+01
     -0.757  0.5008E-04  0.1259E+01
     -0.709  0.9206E-02  0.1260E+01
     -0.660  0.2970E+00  0.1274E+01
     -0.611  0.1755E+01  0.1360E+01
     -0.563  0.2027E+01  0.1458E+01
     -0.514  0.4602E+00  0.1481E+01
     -0.466  0.1940E-01  0.1481E+01
     -0.417  0.1413E-03  0.1481E+01
     -0.368  0.5095E-05  0.1481E+01
     -0.320  0.2075E-02  0.1482E+01
     -0.271  0.1476E+00  0.1489E+01
     -0.222  0.1882E+01  0.1580E+01
     -0.174  0.4619E+01  0.1805E+01
     -0.125  0.2268E+01  0.1915E+01
     -0.076  0.3013E+00  0.1930E+01
     -0.028  0.1025E+01  0.1980E+01
      0.021  0.2326E+01  0.2093E+01
      0.070  0.1220E+01  0.2152E+01
      0.118  0.2147E+01  0.2257E+01
      0.167  0.4694E+01  0.2485E+01
      0.215  0.2513E+01  0.2607E+01
      0.264  0.1113E+01  0.2661E+01
      0.313  0.1690E+01  0.2744E+01
      0.361  0.2265E+01  0.2854E+01
      0.410  0.1070E+01  0.2906E+01
      0.459  0.2126E+01  0.3009E+01
      0.507  0.4342E+01  0.3221E+01
      0.556  0.7143E+01  0.3568E+01
      0.605  0.6076E+01  0.3864E+01
      0.653  0.7074E+01  0.4208E+01
      0.702  0.6372E+01  0.4518E+01
      0.751  0.5120E+01  0.4767E+01
      0.799  0.7012E+01  0.5108E+01
      0.848  0.9626E+01  0.5576E+01
      0.897  0.1071E+02  0.6097E+01
      0.945  0.9941E+01  0.6580E+01
      0.994  0.9168E+01  0.7026E+01
      1.042  0.1371E+02  0.7693E+01
      1.091  0.1936E+02  0.8635E+01
      1.140  0.1580E+02  0.9403E+01
      1.188  0.9553E+01  0.9868E+01
      1.237  0.1708E+02  0.1070E+02
      1.286  0.1725E+02  0.1154E+02
      1.334  0.9357E+01  0.1199E+02
      1.383  0.1752E+02  0.1285E+02
      1.432  0.2199E+02  0.1392E+02
      1.480  0.1879E+02  0.1483E+02
      1.529  0.2383E+02  0.1599E+02
      1.578  0.2554E+02  0.1723E+02
      1.626  0.2385E+02  0.1839E+02
      1.675  0.2662E+02  0.1969E+02
      1.723  0.3099E+02  0.2119E+02
      1.772  0.3554E+02  0.2292E+02
      1.821  0.2950E+02  0.2436E+02
      1.869  0.2175E+02  0.2542E+02
      1.918  0.1653E+02  0.2622E+02
      1.967  0.1800E+02  0.2709E+02
      2.015  0.2425E+02  0.2827E+02
      2.064  0.2956E+02  0.2971E+02
      2.113  0.2554E+02  0.3095E+02
      2.161  0.2267E+02  0.3206E+02
      2.210  0.2402E+02  0.3323E+02
      2.259  0.2642E+02  0.3451E+02
      2.307  0.2504E+02  0.3573E+02
      2.356  0.3368E+02  0.3737E+02
      2.405  0.4197E+02  0.3941E+02
      2.453  0.2917E+02  0.4083E+02
      2.502  0.1476E+02  0.4155E+02
      2.550  0.3369E+01  0.4171E+02
      2.599  0.2053E+01  0.4181E+02
      2.648  0.3543E+01  0.4198E+02
      2.696  0.4287E+01  0.4219E+02
      2.745  0.5613E+01  0.4246E+02
      2.794  0.3596E+01  0.4264E+02
      2.842  0.6091E+00  0.4267E+02
      2.891  0.7815E+00  0.4271E+02
      2.940  0.2269E+01  0.4282E+02
      2.988  0.1331E+01  0.4288E+02
      3.037  0.1507E+00  0.4289E+02
      3.086  0.3074E-02  0.4289E+02
      3.134  0.1934E-02  0.4289E+02
      3.183  0.1118E+00  0.4289E+02
      3.231  0.1161E+01  0.4295E+02
      3.280  0.2319E+01  0.4306E+02
      3.329  0.1212E+01  0.4312E+02
      3.377  0.2723E+01  0.4326E+02
      3.426  0.4546E+01  0.4348E+02
      3.475  0.1766E+01  0.4356E+02
      3.523  0.2452E+01  0.4368E+02
      3.572  0.4621E+01  0.4391E+02
      3.621  0.1794E+01  0.4399E+02
      3.669  0.1324E+00  0.4400E+02
      3.718  0.1726E-02  0.4400E+02
      3.767  0.1267E-03  0.4400E+02
      3.815  0.2176E-01  0.4400E+02
      3.864  0.7127E+00  0.4404E+02
      3.912  0.4647E+01  0.4426E+02
      3.961  0.6375E+01  0.4457E+02
      4.010  0.1842E+01  0.4466E+02
      4.058  0.1053E+00  0.4467E+02
      4.107  0.1094E-02  0.4467E+02
      4.156  0.1927E-05  0.4467E+02
      4.204  0.7985E-09  0.4467E+02
      4.253  0.8671E-06  0.4467E+02
      4.302  0.4859E-03  0.4467E+02
      4.350  0.4510E-01  0.4467E+02
      4.399  0.7346E+00  0.4470E+02
      4.448  0.2276E+01  0.4482E+02
      4.496  0.1844E+01  0.4491E+02
      4.545  0.2206E+01  0.4501E+02
      4.594  0.1736E+01  0.4510E+02
      4.642  0.3430E+00  0.4511E+02
      4.691  0.8372E+00  0.4515E+02
      4.739  0.2293E+01  0.4527E+02
      4.788  0.1255E+01  0.4533E+02
      4.837  0.1467E+00  0.4533E+02
      4.885  0.5165E+00  0.4536E+02
      4.934  0.3326E+01  0.4552E+02
      4.983  0.4193E+01  0.4572E+02
      5.031  0.1041E+01  0.4578E+02
      5.080  0.5550E-01  0.4578E+02
      5.129  0.2589E+00  0.4579E+02
      5.177  0.1667E+01  0.4587E+02
      5.226  0.2126E+01  0.4598E+02
      5.275  0.1337E+01  0.4604E+02
      5.323  0.3939E+01  0.4623E+02
      5.372  0.3673E+01  0.4641E+02
      5.420  0.6744E+00  0.4644E+02
      5.469  0.2277E-01  0.4644E+02
      5.518  0.1319E-03  0.4644E+02
      5.566  0.1247E-06  0.4644E+02
      5.615  0.1872E-10  0.4644E+02
      5.664  0.0000E+00  0.4644E+02
      5.712  0.9192E-11  0.4644E+02
      5.761  0.7005E-07  0.4644E+02
      5.810  0.8458E-04  0.4644E+02
      5.858  0.1664E-01  0.4645E+02
      5.907  0.5588E+00  0.4647E+02
      5.956  0.3433E+01  0.4664E+02
      6.004  0.4115E+01  0.4684E+02
      6.053  0.9706E+00  0.4689E+02
      6.101  0.4258E-01  0.4689E+02
      6.150  0.5496E-03  0.4689E+02
      6.199  0.2368E-01  0.4689E+02
      6.247  0.4479E+00  0.4691E+02
      6.296  0.2063E+01  0.4701E+02
      6.345  0.4502E+01  0.4723E+02
      6.393  0.4183E+01  0.4743E+02
      6.442  0.9231E+00  0.4748E+02
      6.491  0.4413E-01  0.4748E+02
      6.539  0.2452E+00  0.4749E+02
      6.588  0.2225E+01  0.4760E+02
      6.637  0.4436E+01  0.4782E+02
      6.685  0.2020E+01  0.4792E+02
      6.734  0.2009E+00  0.4793E+02
      6.783  0.3943E-02  0.4793E+02
      6.831  0.2823E-02  0.4793E+02
      6.880  0.1823E+00  0.4793E+02
      6.928  0.2105E+01  0.4804E+02
      6.977  0.4646E+01  0.4826E+02
      7.026  0.2029E+01  0.4836E+02
      7.074  0.1806E+00  0.4837E+02
      7.123  0.4453E+00  0.4839E+02
      7.172  0.3136E+01  0.4854E+02
      7.220  0.4315E+01  0.4875E+02
      7.269  0.1171E+01  0.4881E+02
      7.318  0.5949E-01  0.4881E+02
      7.366  0.5260E-03  0.4881E+02
      7.415  0.7669E-06  0.4881E+02
      7.464  0.1784E-09  0.4881E+02
      7.512  0.2981E-11  0.4881E+02
      7.561  0.2796E-07  0.4881E+02
      7.609  0.4154E-04  0.4881E+02
      7.658  0.1001E-01  0.4882E+02
      7.707  0.4095E+00  0.4884E+02
      7.755  0.3037E+01  0.4898E+02
      7.804  0.4372E+01  0.4920E+02
      7.853  0.1251E+01  0.4926E+02
      7.901  0.3550E+00  0.4927E+02
      7.950  0.1738E+01  0.4936E+02
      7.999  0.2041E+01  0.4946E+02
      8.047  0.4716E+00  0.4948E+02
      8.096  0.2045E-01  0.4948E+02
      8.145  0.2469E-01  0.4948E+02
      8.193  0.5260E+00  0.4951E+02
      8.242  0.2102E+01  0.4961E+02
      8.290  0.1655E+01  0.4969E+02
      8.339  0.2537E+00  0.4970E+02
      8.388  0.7098E-02  0.4970E+02
      8.436  0.3383E-04  0.4970E+02
      8.485  0.2661E-07  0.4970E+02
      8.534  0.1388E-05  0.4970E+02
      8.582  0.8225E-03  0.4970E+02
      8.631  0.8062E-01  0.4971E+02
      8.680  0.1384E+01  0.4977E+02
      8.728  0.4525E+01  0.5000E+02
      8.777  0.3677E+01  0.5017E+02
      8.826  0.3224E+01  0.5033E+02
      8.874  0.2978E+01  0.5048E+02
      8.923  0.8311E+00  0.5052E+02
      8.972  0.5035E-01  0.5052E+02
      9.020  0.5591E-03  0.5052E+02
      9.069  0.1047E-05  0.5052E+02
      9.117  0.1236E-04  0.5052E+02
      9.166  0.4168E-02  0.5052E+02
      9.215  0.2378E+00  0.5053E+02
      9.263  0.2499E+01  0.5065E+02
      9.312  0.5586E+01  0.5092E+02
      9.361  0.3253E+01  0.5108E+02
      9.409  0.5745E+00  0.5111E+02
      9.458  0.2685E-01  0.5111E+02
      9.507  0.2071E-02  0.5111E+02
      9.555  0.1370E+00  0.5112E+02
      9.604  0.1826E+01  0.5121E+02
      9.653  0.4626E+01  0.5143E+02
      9.701  0.2319E+01  0.5154E+02
      9.750  0.2231E+00  0.5156E+02
      9.798  0.3835E-02  0.5156E+02
      9.847  0.1106E-04  0.5156E+02
      9.896  0.5149E-08  0.5156E+02
      9.944  0.2847E-07  0.5156E+02
      9.993  0.3604E-04  0.5156E+02
     10.042  0.7425E-02  0.5156E+02
     10.090  0.2608E+00  0.5157E+02
     10.139  0.1672E+01  0.5165E+02
     10.188  0.2090E+01  0.5175E+02
     10.236  0.5169E+00  0.5178E+02
     10.285  0.1594E+00  0.5178E+02
     10.334  0.1271E+01  0.5185E+02
     10.382  0.2288E+01  0.5196E+02
     10.431  0.8152E+00  0.5200E+02
     10.479  0.5498E-01  0.5200E+02
     10.528  0.6529E-03  0.5200E+02
     10.577  0.1288E-05  0.5200E+02
     10.625  0.4070E-09  0.5200E+02
     10.674  0.2029E-13  0.5200E+02
     10.723  0.0000E+00  0.5200E+02
     10.771  0.0000E+00  0.5200E+02
     10.820  0.0000E+00  0.5200E+02
     10.869  0.0000E+00  0.5200E+02
     10.917  0.0000E+00  0.5200E+02
     10.966  0.0000E+00  0.5200E+02
     11.015  0.0000E+00  0.5200E+02
