 vasp.5.4.4.18Apr17-6-g9f103f2a35 (build Jan 01 2020 16:14:11) complex          
  
 executed on             LinuxIFC date 2022.03.02  19:16:13
 running on    4 total cores
 distrk:  each k-point on    4 cores,    1 groups
 distr:  one band on NCORES_PER_BAND=   2 cores,    2 groups


--------------------------------------------------------------------------------------------------------


 INCAR:
 POTCAR:    PAW_PBE Cu 22Jun2005                  
 POTCAR:    PAW_PBE Cu 22Jun2005                  
   VRHFIN =Cu: d10 p1                                                           
   LEXCH  = PE                                                                  
   EATOM  =  1390.9808 eV,  102.2342 Ry                                         
                                                                                
   TITEL  = PAW_PBE Cu 22Jun2005                                                
   LULTRA =        F    use ultrasoft PP ?                                      
   IUNSCR =        1    unscreen: 0-lin 1-nonlin 2-no                           
   RPACOR =    2.000    partial core radius                                     
   POMASS =   63.546; ZVAL   =   11.000    mass and valenz                      
   RCORE  =    2.300    outmost cutoff radius                                   
   RWIGS  =    2.200; RWIGS  =    1.164    wigner-seitz radius (au A)           
   ENMAX  =  295.446; ENMIN  =  221.585 eV                                      
   ICORE  =        3    local potential                                         
   LCOR   =        T    correct aug charges                                     
   LPAW   =        T    paw PP                                                  
   EAUG   =  586.980                                                            
   DEXC   =    0.000                                                            
   RMAX   =    2.344    core radius for proj-oper                               
   RAUG   =    1.300    factor for augmentation sphere                          
   RDEP   =    2.302    radius for radial grids                                 
   RDEPT  =    1.771    core radius for aug-charge                              
                                                                                
   Atomic configuration                                                         
    9 entries                                                                   
     n  l   j            E        occ.                                          
     1  0  0.50     -8850.2468   2.0000                                         
     2  0  0.50     -1062.3498   2.0000                                         
     2  1  1.50      -916.8226   6.0000                                         
     3  0  0.50      -114.6929   2.0000                                         
     3  1  1.50       -72.1325   6.0000                                         
     3  2  2.50        -5.0394  10.0000                                         
     4  0  0.50        -4.6097   1.0000                                         
     4  1  0.50        -4.0817   0.0000                                         
     4  3  2.50        -1.3606   0.0000                                         
   Description                                                                  
     l       E           TYP  RCUT    TYP  RCUT                                 
     2     -5.0393973     23  2.200                                             
     2     10.8846608     23  2.200                                             
     0     -4.6097109     23  2.200                                             
     0      8.2520465     23  2.200                                             
     1     -2.7211652     23  2.200                                             
     1     21.7055443     23  2.200                                             
     3      2.7211652     23  2.300                                             
  local pseudopotential read in
  partial core-charges read in
  partial kinetic energy density read in
  atomic valenz-charges read in
  non local Contribution for L=           2  read in
    real space projection operators read in
  non local Contribution for L=           2  read in
    real space projection operators read in
  non local Contribution for L=           0  read in
    real space projection operators read in
  non local Contribution for L=           0  read in
    real space projection operators read in
  non local Contribution for L=           1  read in
    real space projection operators read in
  non local Contribution for L=           1  read in
    real space projection operators read in
    PAW grid and wavefunctions read in
 
   number of l-projection  operators is LMAX  =           6
   number of lm-projection operators is LMMAX =          18
 
  PAW_PBE Cu 22Jun2005                  :
 energy of atom  1       EATOM=-1390.9808
 kinetic energy error for atom=    0.0422 (will be added to EATOM!!)
 
 
 POSCAR: Cu                                      
  positions in cartesian coordinates
  No initial velocities read in
 exchange correlation table for  LEXCH =        8
   RHO(1)=    0.500       N(1)  =     2000
   RHO(2)=  100.500       N(2)  =     4000
 


--------------------------------------------------------------------------------------------------------


 ion  position               nearest neighbor table
   1  0.000  0.000  0.000-
   2  0.000  0.500  0.500-
   3  0.500  0.000  0.500-
   4  0.500  0.500  0.000-
 
  LATTYP: Found a simple cubic cell.
 ALAT       =     4.1000000000
  
  Lattice vectors:
  
 A1 = (   4.1000000000,   0.0000000000,   0.0000000000)
 A2 = (   0.0000000000,   4.1000000000,   0.0000000000)
 A3 = (   0.0000000000,   0.0000000000,   4.1000000000)


Analysis of symmetry for initial positions (statically):
=====================================================================
 Subroutine PRICEL returns following result:
 
  LATTYP: Found a face centered cubic cell.
 ALAT       =     4.1000000000
  
  Lattice vectors:
  
 A1 = (   2.0500000000,   2.0500000000,   0.0000000000)
 A2 = (   2.0500000000,   0.0000000000,  -2.0500000000)
 A3 = (   0.0000000000,   2.0500000000,  -2.0500000000)
 
   4 primitive cells build up your supercell.
 

 Routine SETGRP: Setting up the symmetry group for a 
 simple cubic supercell.


 Subroutine GETGRP returns: Found 48 space group operations
 (whereof 48 operations were pure point group operations)
 out of a pool of 48 trial point group operations.


The static configuration has the point symmetry O_h .


Analysis of symmetry for dynamics (positions and initial velocities):
=====================================================================
 Subroutine PRICEL returns following result:
 
  LATTYP: Found a face centered cubic cell.
 ALAT       =     4.1000000000
  
  Lattice vectors:
  
 A1 = (   2.0500000000,   2.0500000000,   0.0000000000)
 A2 = (   2.0500000000,   0.0000000000,  -2.0500000000)
 A3 = (   0.0000000000,   2.0500000000,  -2.0500000000)
 
   4 primitive cells build up your supercell.
 

 Routine SETGRP: Setting up the symmetry group for a 
 simple cubic supercell.


 Subroutine GETGRP returns: Found 48 space group operations
 (whereof 48 operations were pure point group operations)
 out of a pool of 48 trial point group operations.


The dynamic configuration has the point symmetry O_h .


 Subroutine INISYM returns: Found 48 space group operations
 (whereof 48 operations are pure point group operations),
 and found     4 'primitive' translations

 
 
 KPOINTS: KPOINTS created by Atomic Simulation Env

Automatic generation of k-mesh.
Space group operators:
 irot       det(A)        alpha          n_x          n_y          n_z        tau_x        tau_y        tau_z
    1     1.000000     0.000000     1.000000     0.000000     0.000000     0.000000     0.000000     0.000000
    2    -1.000000     0.000000     1.000000     0.000000     0.000000     0.000000     0.000000     0.000000
    3     1.000000   120.000000    -0.577350    -0.577350    -0.577350     0.000000     0.000000     0.000000
    4    -1.000000   120.000000    -0.577350    -0.577350    -0.577350     0.000000     0.000000     0.000000
    5     1.000000   120.000000     0.577350     0.577350     0.577350     0.000000     0.000000     0.000000
    6    -1.000000   120.000000     0.577350     0.577350     0.577350     0.000000     0.000000     0.000000
    7     1.000000    90.000000     0.000000     0.000000    -1.000000     0.000000     0.000000     0.000000
    8    -1.000000    90.000000     0.000000     0.000000    -1.000000     0.000000     0.000000     0.000000
    9     1.000000   180.000000     0.000000     0.707107     0.707107     0.000000     0.000000     0.000000
   10    -1.000000   180.000000     0.000000     0.707107     0.707107     0.000000     0.000000     0.000000
   11     1.000000    90.000000     0.000000     1.000000     0.000000     0.000000     0.000000     0.000000
   12    -1.000000    90.000000     0.000000     1.000000     0.000000     0.000000     0.000000     0.000000
   13     1.000000   180.000000     0.000000     0.000000     1.000000     0.000000     0.000000     0.000000
   14    -1.000000   180.000000     0.000000     0.000000     1.000000     0.000000     0.000000     0.000000
   15     1.000000   120.000000    -0.577350     0.577350     0.577350     0.000000     0.000000     0.000000
   16    -1.000000   120.000000    -0.577350     0.577350     0.577350     0.000000     0.000000     0.000000
   17     1.000000   120.000000    -0.577350     0.577350    -0.577350     0.000000     0.000000     0.000000
   18    -1.000000   120.000000    -0.577350     0.577350    -0.577350     0.000000     0.000000     0.000000
   19     1.000000    90.000000     0.000000     0.000000     1.000000     0.000000     0.000000     0.000000
   20    -1.000000    90.000000     0.000000     0.000000     1.000000     0.000000     0.000000     0.000000
   21     1.000000    90.000000    -1.000000     0.000000     0.000000     0.000000     0.000000     0.000000
   22    -1.000000    90.000000    -1.000000     0.000000     0.000000     0.000000     0.000000     0.000000
   23     1.000000   180.000000     0.707107     0.000000     0.707107     0.000000     0.000000     0.000000
   24    -1.000000   180.000000     0.707107     0.000000     0.707107     0.000000     0.000000     0.000000
   25     1.000000   120.000000     0.577350    -0.577350     0.577350     0.000000     0.000000     0.000000
   26    -1.000000   120.000000     0.577350    -0.577350     0.577350     0.000000     0.000000     0.000000
   27     1.000000   120.000000    -0.577350    -0.577350     0.577350     0.000000     0.000000     0.000000
   28    -1.000000   120.000000    -0.577350    -0.577350     0.577350     0.000000     0.000000     0.000000
   29     1.000000   180.000000     1.000000     0.000000     0.000000     0.000000     0.000000     0.000000
   30    -1.000000   180.000000     1.000000     0.000000     0.000000     0.000000     0.000000     0.000000
   31     1.000000    90.000000     0.000000    -1.000000     0.000000     0.000000     0.000000     0.000000
   32    -1.000000    90.000000     0.000000    -1.000000     0.000000     0.000000     0.000000     0.000000
   33     1.000000   180.000000     0.707107     0.707107     0.000000     0.000000     0.000000     0.000000
   34    -1.000000   180.000000     0.707107     0.707107     0.000000     0.000000     0.000000     0.000000
   35     1.000000    90.000000     1.000000     0.000000     0.000000     0.000000     0.000000     0.000000
   36    -1.000000    90.000000     1.000000     0.000000     0.000000     0.000000     0.000000     0.000000
   37     1.000000   120.000000     0.577350    -0.577350    -0.577350     0.000000     0.000000     0.000000
   38    -1.000000   120.000000     0.577350    -0.577350    -0.577350     0.000000     0.000000     0.000000
   39     1.000000   180.000000     0.000000     1.000000     0.000000     0.000000     0.000000     0.000000
   40    -1.000000   180.000000     0.000000     1.000000     0.000000     0.000000     0.000000     0.000000
   41     1.000000   120.000000     0.577350     0.577350    -0.577350     0.000000     0.000000     0.000000
   42    -1.000000   120.000000     0.577350     0.577350    -0.577350     0.000000     0.000000     0.000000
   43     1.000000   180.000000     0.000000    -0.707107     0.707107     0.000000     0.000000     0.000000
   44    -1.000000   180.000000     0.000000    -0.707107     0.707107     0.000000     0.000000     0.000000
   45     1.000000   180.000000     0.707107    -0.707107     0.000000     0.000000     0.000000     0.000000
   46    -1.000000   180.000000     0.707107    -0.707107     0.000000     0.000000     0.000000     0.000000
   47     1.000000   180.000000     0.707107     0.000000    -0.707107     0.000000     0.000000     0.000000
   48    -1.000000   180.000000     0.707107     0.000000    -0.707107     0.000000     0.000000     0.000000
 
 Subroutine IBZKPT returns following result:
 ===========================================
 
 Found     10 irreducible k-points:
 
 Following reciprocal coordinates:
            Coordinates               Weight
  0.083333  0.083333  0.083333      8.000000
  0.250000  0.083333  0.083333     24.000000
  0.416667  0.083333  0.083333     24.000000
  0.250000  0.250000  0.083333     24.000000
  0.416667  0.250000  0.083333     48.000000
  0.416667  0.416667  0.083333     24.000000
  0.250000  0.250000  0.250000      8.000000
  0.416667  0.250000  0.250000     24.000000
  0.416667  0.416667  0.250000     24.000000
  0.416667  0.416667  0.416667      8.000000
 
 Following cartesian coordinates:
            Coordinates               Weight
  0.020325  0.020325  0.020325      8.000000
  0.060976  0.020325  0.020325     24.000000
  0.101626  0.020325  0.020325     24.000000
  0.060976  0.060976  0.020325     24.000000
  0.101626  0.060976  0.020325     48.000000
  0.101626  0.101626  0.020325     24.000000
  0.060976  0.060976  0.060976      8.000000
  0.101626  0.060976  0.060976     24.000000
  0.101626  0.101626  0.060976     24.000000
  0.101626  0.101626  0.101626      8.000000
 


--------------------------------------------------------------------------------------------------------




 Dimension of arrays:
   k-points           NKPTS =     10   k-points in BZ     NKDIM =     10   number of bands    NBANDS=     26
   number of dos      NEDOS =    301   number of ions     NIONS =      4
   non local maximal  LDIM  =      6   non local SUM 2l+1 LMDIM =     18
   total plane-waves  NPLWV =  13824
   max r-space proj   IRMAX =      1   max aug-charges    IRDMAX=   6009
   dimension x,y,z NGX =    24 NGY =   24 NGZ =   24
   dimension x,y,z NGXF=    48 NGYF=   48 NGZF=   48
   support grid    NGXF=    48 NGYF=   48 NGZF=   48
   ions per type =               4
   NGX,Y,Z   is equivalent  to a cutoff of   9.73,  9.73,  9.73 a.u.
   NGXF,Y,Z  is equivalent  to a cutoff of  19.46, 19.46, 19.46 a.u.

 SYSTEM =  unknown system                          
 POSCAR =  Cu                                      

 Startparameter for this run:
   NWRITE =      2    write-flag & timer
   PREC   = accura    normal or accurate (medium, high low for compatibility)
   ISTART =      0    job   : 0-new  1-cont  2-samecut
   ICHARG =      2    charge: 1-file 2-atom 10-const
   ISPIN  =      1    spin polarized calculation?
   LNONCOLLINEAR =      F non collinear calculations
   LSORBIT =      F    spin-orbit coupling
   INIWAV =      1    electr: 0-lowe 1-rand  2-diag
   LASPH  =      F    aspherical Exc in radial PAW
   METAGGA=      F    non-selfconsistent MetaGGA calc.

 Electronic Relaxation 1
   ENCUT  =  300.0 eV  22.05 Ry    4.70 a.u.   5.79  5.79  5.79*2*pi/ulx,y,z
   ENINI  =  300.0     initial cutoff
   ENAUG  =  587.0 eV  augmentation charge cutoff
   NELM   =    100;   NELMIN=  4; NELMDL= -5     # of ELM steps 
   EDIFF  = 0.1E-04   stopping-criterion for ELM
   LREAL  =      F    real-space projection
   NLSPLINE    = F    spline interpolate recip. space projectors
   LCOMPAT=      F    compatible to vasp.4.4
   GGA_COMPAT  = T    GGA compatible to vasp.4.4-vasp.4.6
   LMAXPAW     = -100 max onsite density
   LMAXMIX     =    2 max onsite mixed and CHGCAR
   VOSKOWN=      0    Vosko Wilk Nusair interpolation
   ROPT   =    0.00000
 Ionic relaxation
   EDIFFG = 0.1E-03   stopping-criterion for IOM
   NSW    =      0    number of steps for IOM
   NBLOCK =      1;   KBLOCK =      1    inner block; outer block 
   IBRION =     -1    ionic relax: 0-MD 1-quasi-New 2-CG
   NFREE  =      0    steps in history (QN), initial steepest desc. (CG)
   ISIF   =      2    stress and relaxation
   IWAVPR =     10    prediction:  0-non 1-charg 2-wave 3-comb
   ISYM   =      2    0-nonsym 1-usesym 2-fastsym
   LCORR  =      T    Harris-Foulkes like correction to forces

   POTIM  = 0.5000    time-step for ionic-motion
   TEIN   =    0.0    initial temperature
   TEBEG  =    0.0;   TEEND  =   0.0 temperature during run
   SMASS  =  -3.00    Nose mass-parameter (am)
   estimated Nose-frequenzy (Omega)   =  0.10E-29 period in steps =****** mass=  -0.384E-27a.u.
   SCALEE = 1.0000    scale energy and forces
   NPACO  =    256;   APACO  = 16.0  distance and # of slots for P.C.
   PSTRESS=    0.0 pullay stress

  Mass of Ions in am
   POMASS =  63.55
  Ionic Valenz
   ZVAL   =  11.00
  Atomic Wigner-Seitz radii
   RWIGS  =  -1.00
  virtual crystal weights 
   VCA    =   1.00
   NELECT =      44.0000    total number of electrons
   NUPDOWN=      -1.0000    fix difference up-down

 DOS related values:
   EMIN   =  10.00;   EMAX   =-10.00  energy-range for DOS
   EFERMI =   0.00
   ISMEAR =     0;   SIGMA  =   0.05  broadening in eV -4-tet -1-fermi 0-gaus

 Electronic relaxation 2 (details)
   IALGO  =     68    algorithm
   LDIAG  =      T    sub-space diagonalisation (order eigenvalues)
   LSUBROT=      F    optimize rotation matrix (better conditioning)
   TURBO    =      0    0=normal 1=particle mesh
   IRESTART =      0    0=no restart 2=restart with 2 vectors
   NREBOOT  =      0    no. of reboots
   NMIN     =      0    reboot dimension
   EREF     =   0.00    reference energy to select bands
   IMIX   =      4    mixing-type and parameters
     AMIX     =   0.40;   BMIX     =  1.00
     AMIX_MAG =   1.60;   BMIX_MAG =  1.00
     AMIN     =   0.10
     WC   =   100.;   INIMIX=   1;  MIXPRE=   1;  MAXMIX= -45

 Intra band minimization:
   WEIMIN = 0.0000     energy-eigenvalue tresh-hold
   EBREAK =  0.96E-07  absolut break condition
   DEPER  =   0.30     relativ break condition  

   TIME   =   0.40     timestep for ELM

  volume/ion in A,a.u.               =      17.23       116.28
  Fermi-wavevector in a.u.,A,eV,Ry     =   1.409641  2.663835 27.035971  1.987088
  Thomas-Fermi vector in A             =   2.531676
 
 Write flags
   LWAVE        =      F    write WAVECAR
   LDOWNSAMPLE  =      F    k-point downsampling of WAVECAR
   LCHARG       =      T    write CHGCAR
   LVTOT        =      F    write LOCPOT, total local potential
   LVHAR        =      F    write LOCPOT, Hartree potential only
   LELF         =      F    write electronic localiz. function (ELF)
   LORBIT       =      0    0 simple, 1 ext, 2 COOP (PROOUT), +10 PAW based schemes


 Dipole corrections
   LMONO  =      F    monopole corrections only (constant potential shift)
   LDIPOL =      F    correct potential (dipole corrections)
   IDIPOL =      0    1-x, 2-y, 3-z, 4-all directions 
   EPSILON=  1.0000000 bulk dielectric constant

 Exchange correlation treatment:
   GGA     =    PE    GGA type
   LEXCH   =     8    internal setting for exchange type
   VOSKOWN=      0    Vosko Wilk Nusair interpolation
   LHFCALC =     F    Hartree Fock is set to
   LHFONE  =     F    Hartree Fock one center treatment
   AEXX    =    0.0000 exact exchange contribution

 Linear response parameters
   LEPSILON=     F    determine dielectric tensor
   LRPA    =     F    only Hartree local field effects (RPA)
   LNABLA  =     F    use nabla operator in PAW spheres
   LVEL    =     F    velocity operator in full k-point grid
   LINTERFAST=   F  fast interpolation
   KINTER  =     0    interpolate to denser k-point grid
   CSHIFT  =0.1000    complex shift for real part using Kramers Kronig
   OMEGAMAX=  -1.0    maximum frequency
   DEG_THRESHOLD= 0.2000000E-02 threshold for treating states as degnerate
   RTIME   =   -0.100 relaxation time in fs
  (WPLASMAI=    0.000 imaginary part of plasma frequency in eV, 0.658/RTIME)
   DFIELD  = 0.0000000 0.0000000 0.0000000 field for delta impulse in time
 
 Orbital magnetization related:
   ORBITALMAG=     F  switch on orbital magnetization
   LCHIMAG   =     F  perturbation theory with respect to B field
   DQ        =  0.001000  dq finite difference perturbation B field
   LLRAUG    =     F  two centre corrections for induced B field



--------------------------------------------------------------------------------------------------------


 Static calculation
 charge density and potential will be updated during run
 non-spin polarized calculation
 RMM-DIIS sequential band-by-band and
  variant of blocked Davidson during initial phase
 perform sub-space diagonalisation
    before iterative eigenvector-optimisation
 modified Broyden-mixing scheme, WC =      100.0
 initial mixing is a Kerker type mixing with AMIX =  0.4000 and BMIX =      1.0000
 Hartree-type preconditioning will be used
 using additional bands            4
 reciprocal scheme for non local part
 use partial core corrections
 calculate Harris-corrections to forces 
   (improved forces if not selfconsistent)
 use gradient corrections 
 use of overlap-Matrix (Vanderbilt PP)
 Gauss-broadening in eV      SIGMA  =   0.05


--------------------------------------------------------------------------------------------------------


  energy-cutoff  :      300.00
  volume of cell :       68.92
      direct lattice vectors                 reciprocal lattice vectors
     4.100000000  0.000000000  0.000000000     0.243902439  0.000000000  0.000000000
     0.000000000  4.100000000  0.000000000     0.000000000  0.243902439  0.000000000
     0.000000000  0.000000000  4.100000000     0.000000000  0.000000000  0.243902439

  length of vectors
     4.100000000  4.100000000  4.100000000     0.243902439  0.243902439  0.243902439


 
 k-points in units of 2pi/SCALE and weight: KPOINTS created by Atomic Simulation Env
   0.02032520  0.02032520  0.02032520       0.037
   0.06097561  0.02032520  0.02032520       0.111
   0.10162602  0.02032520  0.02032520       0.111
   0.06097561  0.06097561  0.02032520       0.111
   0.10162602  0.06097561  0.02032520       0.222
   0.10162602  0.10162602  0.02032520       0.111
   0.06097561  0.06097561  0.06097561       0.037
   0.10162602  0.06097561  0.06097561       0.111
   0.10162602  0.10162602  0.06097561       0.111
   0.10162602  0.10162602  0.10162602       0.037
 
 k-points in reciprocal lattice and weights: KPOINTS created by Atomic Simulation Env
   0.08333333  0.08333333  0.08333333       0.037
   0.25000000  0.08333333  0.08333333       0.111
   0.41666667  0.08333333  0.08333333       0.111
   0.25000000  0.25000000  0.08333333       0.111
   0.41666667  0.25000000  0.08333333       0.222
   0.41666667  0.41666667  0.08333333       0.111
   0.25000000  0.25000000  0.25000000       0.037
   0.41666667  0.25000000  0.25000000       0.111
   0.41666667  0.41666667  0.25000000       0.111
   0.41666667  0.41666667  0.41666667       0.037
 
 position of ions in fractional coordinates (direct lattice) 
   0.00000000  0.00000000  0.00000000
   0.00000000  0.50000000  0.50000000
   0.50000000  0.00000000  0.50000000
   0.50000000  0.50000000  0.00000000
 
 position of ions in cartesian coordinates  (Angst):
   0.00000000  0.00000000  0.00000000
   0.00000000  2.05000000  2.05000000
   2.05000000  0.00000000  2.05000000
   2.05000000  2.05000000  0.00000000
 


--------------------------------------------------------------------------------------------------------


 k-point  1 :   0.0833 0.0833 0.0833  plane waves:     805
 k-point  2 :   0.2500 0.0833 0.0833  plane waves:     812
 k-point  3 :   0.4167 0.0833 0.0833  plane waves:     817
 k-point  4 :   0.2500 0.2500 0.0833  plane waves:     814
 k-point  5 :   0.4167 0.2500 0.0833  plane waves:     811
 k-point  6 :   0.4167 0.4167 0.0833  plane waves:     816
 k-point  7 :   0.2500 0.2500 0.2500  plane waves:     811
 k-point  8 :   0.4167 0.2500 0.2500  plane waves:     814
 k-point  9 :   0.4167 0.4167 0.2500  plane waves:     809
 k-point 10 :   0.4167 0.4167 0.4167  plane waves:     822

 maximum and minimum number of plane-waves per node :       411      400

 maximum number of plane-waves:       822
 maximum index in each direction: 
   IXMAX=    5   IYMAX=    5   IZMAX=    5
   IXMIN=   -6   IYMIN=   -6   IZMIN=   -6


 parallel 3D FFT for wavefunctions:
    minimum data exchange during FFTs selected (reduces bandwidth)
 parallel 3D FFT for charge:
    minimum data exchange during FFTs selected (reduces bandwidth)


 total amount of memory used by VASP MPI-rank0    34396. kBytes
=======================================================================

   base      :      30000. kBytes
   nonl-proj :        619. kBytes
   fftplans  :       1170. kBytes
   grid      :       1645. kBytes
   one-center:         31. kBytes
   wavefun   :        931. kBytes
 
     INWAV:  cpu time    0.0000: real time    0.0000
 Broyden mixing: mesh for mixing (old mesh)
   NGX = 11   NGY = 11   NGZ = 11
  (NGX  = 48   NGY  = 48   NGZ  = 48)
  gives a total of   1331 points

 initial charge density was supplied:
 charge density of overlapping atoms calculated
 number of electron      44.0000000 magnetization 
 keeping initial charge density in first step


--------------------------------------------------------------------------------------------------------


 Maximum index for augmentation-charges         1397 (set IRDMAX)


--------------------------------------------------------------------------------------------------------


 First call to EWALD:  gamma=   0.432
 Maximum number of real-space cells 3x 3x 3
 Maximum number of reciprocal cells 3x 3x 3

    FEWALD:  cpu time    0.0022: real time    0.0022


--------------------------------------- Iteration      1(   1)  ---------------------------------------


    POTLOK:  cpu time    0.0261: real time    0.0527
    SETDIJ:  cpu time    0.0043: real time    0.0043
     EDDAV:  cpu time    0.2059: real time    0.2060
       DOS:  cpu time    0.0007: real time    0.0007
    --------------------------------------------
      LOOP:  cpu time    0.2371: real time    0.2637

 eigenvalue-minimisations  :   528
 total energy-change (2. order) : 0.2819035E+03  (-0.1440140E+04)
 number of electron      44.0000000 magnetization 
 augmentation part       44.0000000 magnetization 

 Free energy of the ion-electron system (eV)
  ---------------------------------------------------
  alpha Z        PSCENC =       169.77769609
  Ewald energy   TEWEN  =     -3896.85155591
  -Hartree energ DENC   =     -1747.40413954
  -exchange      EXHF   =         0.00000000
  -V(xc)+E(xc)   XCENC  =       179.69209604
  PAW double counting   =      4912.82663951    -5336.19386850
  entropy T*S    EENTRO =        -0.00385850
  eigenvalues    EBANDS =       436.30621494
  atomic energy  EATOM  =      5563.75431560
  Solvation  Ediel_sol  =         0.00000000
  ---------------------------------------------------
  free energy    TOTEN  =       281.90353973 eV

  energy without entropy =      281.90739824  energy(sigma->0) =      281.90546899


--------------------------------------------------------------------------------------------------------




--------------------------------------- Iteration      1(   2)  ---------------------------------------


     EDDAV:  cpu time    0.1508: real time    0.1510
       DOS:  cpu time    0.0005: real time    0.0005
    --------------------------------------------
      LOOP:  cpu time    0.1513: real time    0.1515

 eigenvalue-minimisations  :   520
 total energy-change (2. order) :-0.2768361E+03  (-0.2718029E+03)
 number of electron      44.0000000 magnetization 
 augmentation part       44.0000000 magnetization 

 Free energy of the ion-electron system (eV)
  ---------------------------------------------------
  alpha Z        PSCENC =       169.77769609
  Ewald energy   TEWEN  =     -3896.85155591
  -Hartree energ DENC   =     -1747.40413954
  -exchange      EXHF   =         0.00000000
  -V(xc)+E(xc)   XCENC  =       179.69209604
  PAW double counting   =      4912.82663951    -5336.19386850
  entropy T*S    EENTRO =        -0.01007996
  eigenvalues    EBANDS =       159.47637734
  atomic energy  EATOM  =      5563.75431560
  Solvation  Ediel_sol  =         0.00000000
  ---------------------------------------------------
  free energy    TOTEN  =         5.06748068 eV

  energy without entropy =        5.07756063  energy(sigma->0) =        5.07252065


--------------------------------------------------------------------------------------------------------




--------------------------------------- Iteration      1(   3)  ---------------------------------------


     EDDAV:  cpu time    0.1466: real time    0.1466
       DOS:  cpu time    0.0005: real time    0.0005
    --------------------------------------------
      LOOP:  cpu time    0.1471: real time    0.1472

 eigenvalue-minimisations  :   564
 total energy-change (2. order) :-0.2018681E+02  (-0.1921802E+02)
 number of electron      44.0000000 magnetization 
 augmentation part       44.0000000 magnetization 

 Free energy of the ion-electron system (eV)
  ---------------------------------------------------
  alpha Z        PSCENC =       169.77769609
  Ewald energy   TEWEN  =     -3896.85155591
  -Hartree energ DENC   =     -1747.40413954
  -exchange      EXHF   =         0.00000000
  -V(xc)+E(xc)   XCENC  =       179.69209604
  PAW double counting   =      4912.82663951    -5336.19386850
  entropy T*S    EENTRO =        -0.00842157
  eigenvalues    EBANDS =       139.28790772
  atomic energy  EATOM  =      5563.75431560
  Solvation  Ediel_sol  =         0.00000000
  ---------------------------------------------------
  free energy    TOTEN  =       -15.11933056 eV

  energy without entropy =      -15.11090899  energy(sigma->0) =      -15.11511977


--------------------------------------------------------------------------------------------------------




--------------------------------------- Iteration      1(   4)  ---------------------------------------


     EDDAV:  cpu time    0.1555: real time    0.1555
       DOS:  cpu time    0.0004: real time    0.0004
    --------------------------------------------
      LOOP:  cpu time    0.1560: real time    0.1560

 eigenvalue-minimisations  :   630
 total energy-change (2. order) :-0.4591883E+00  (-0.4569583E+00)
 number of electron      44.0000000 magnetization 
 augmentation part       44.0000000 magnetization 

 Free energy of the ion-electron system (eV)
  ---------------------------------------------------
  alpha Z        PSCENC =       169.77769609
  Ewald energy   TEWEN  =     -3896.85155591
  -Hartree energ DENC   =     -1747.40413954
  -exchange      EXHF   =         0.00000000
  -V(xc)+E(xc)   XCENC  =       179.69209604
  PAW double counting   =      4912.82663951    -5336.19386850
  entropy T*S    EENTRO =        -0.00909224
  eigenvalues    EBANDS =       138.82939011
  atomic energy  EATOM  =      5563.75431560
  Solvation  Ediel_sol  =         0.00000000
  ---------------------------------------------------
  free energy    TOTEN  =       -15.57851883 eV

  energy without entropy =      -15.56942659  energy(sigma->0) =      -15.57397271


--------------------------------------------------------------------------------------------------------




--------------------------------------- Iteration      1(   5)  ---------------------------------------


     EDDAV:  cpu time    0.1438: real time    0.1438
       DOS:  cpu time    0.0004: real time    0.0004
    CHARGE:  cpu time    0.0151: real time    0.0151
    MIXING:  cpu time    0.0005: real time    0.0005
    --------------------------------------------
      LOOP:  cpu time    0.1599: real time    0.1599

 eigenvalue-minimisations  :   618
 total energy-change (2. order) :-0.5492196E-02  (-0.5489896E-02)
 number of electron      44.0000033 magnetization 
 augmentation part       26.3322605 magnetization 

 Broyden mixing:
  rms(total) = 0.13211E+01    rms(broyden)= 0.13209E+01
  rms(prec ) = 0.29651E+01
  weight for this iteration     100.00

 Free energy of the ion-electron system (eV)
  ---------------------------------------------------
  alpha Z        PSCENC =       169.77769609
  Ewald energy   TEWEN  =     -3896.85155591
  -Hartree energ DENC   =     -1747.40413954
  -exchange      EXHF   =         0.00000000
  -V(xc)+E(xc)   XCENC  =       179.69209604
  PAW double counting   =      4912.82663951    -5336.19386850
  entropy T*S    EENTRO =        -0.00908769
  eigenvalues    EBANDS =       138.82389337
  atomic energy  EATOM  =      5563.75431560
  Solvation  Ediel_sol  =         0.00000000
  ---------------------------------------------------
  free energy    TOTEN  =       -15.58401103 eV

  energy without entropy =      -15.57492334  energy(sigma->0) =      -15.57946718


--------------------------------------------------------------------------------------------------------




--------------------------------------- Iteration      1(   6)  ---------------------------------------


    POTLOK:  cpu time    0.0117: real time    0.0117
    SETDIJ:  cpu time    0.0022: real time    0.0024
    EDDIAG:  cpu time    0.0291: real time    0.0292
  RMM-DIIS:  cpu time    0.0852: real time    0.0852
    ORTHCH:  cpu time    0.0025: real time    0.0025
       DOS:  cpu time    0.0003: real time    0.0003
    CHARGE:  cpu time    0.0143: real time    0.0143
    MIXING:  cpu time    0.0005: real time    0.0005
    --------------------------------------------
      LOOP:  cpu time    0.1458: real time    0.1460

 eigenvalue-minimisations  :   529
 total energy-change (2. order) : 0.4491260E+00  (-0.4318920E+01)
 number of electron      44.0000032 magnetization 
 augmentation part       29.8448978 magnetization 

 Broyden mixing:
  rms(total) = 0.10086E+01    rms(broyden)= 0.10081E+01
  rms(prec ) = 0.20205E+01
  weight for this iteration     100.00

 eigenvalues of (default mixing * dielectric matrix)
  average eigenvalue GAMMA=   0.5658
  0.5658

 Free energy of the ion-electron system (eV)
  ---------------------------------------------------
  alpha Z        PSCENC =       169.77769609
  Ewald energy   TEWEN  =     -3896.85155591
  -Hartree energ DENC   =     -1635.66839426
  -exchange      EXHF   =         0.00000000
  -V(xc)+E(xc)   XCENC  =       174.39361726
  PAW double counting   =      4815.41930241    -5215.18668931
  entropy T*S    EENTRO =        -0.00000000
  eigenvalues    EBANDS =         9.22682313
  atomic energy  EATOM  =      5563.75431560
  Solvation  Ediel_sol  =         0.00000000
  ---------------------------------------------------
  free energy    TOTEN  =       -15.13488498 eV

  energy without entropy =      -15.13488498  energy(sigma->0) =      -15.13488498


--------------------------------------------------------------------------------------------------------




--------------------------------------- Iteration      1(   7)  ---------------------------------------


    POTLOK:  cpu time    0.0113: real time    0.0113
    SETDIJ:  cpu time    0.0021: real time    0.0021
    EDDIAG:  cpu time    0.0295: real time    0.0295
  RMM-DIIS:  cpu time    0.0842: real time    0.0842
    ORTHCH:  cpu time    0.0025: real time    0.0025
       DOS:  cpu time    0.0003: real time    0.0003
    CHARGE:  cpu time    0.0139: real time    0.0139
    MIXING:  cpu time    0.0005: real time    0.0005
    --------------------------------------------
      LOOP:  cpu time    0.1443: real time    0.1443

 eigenvalue-minimisations  :   522
 total energy-change (2. order) : 0.2082774E+01  (-0.8715747E+00)
 number of electron      44.0000032 magnetization 
 augmentation part       28.4180123 magnetization 

 Broyden mixing:
  rms(total) = 0.75859E-01    rms(broyden)= 0.75399E-01
  rms(prec ) = 0.12637E+00
  weight for this iteration     100.00

 eigenvalues of (default mixing * dielectric matrix)
  average eigenvalue GAMMA=   1.1050
  1.6058  0.6043

 Free energy of the ion-electron system (eV)
  ---------------------------------------------------
  alpha Z        PSCENC =       169.77769609
  Ewald energy   TEWEN  =     -3896.85155591
  -Hartree energ DENC   =     -1678.43082419
  -exchange      EXHF   =         0.00000000
  -V(xc)+E(xc)   XCENC  =       176.55662627
  PAW double counting   =      4886.13053160    -5304.36111035
  entropy T*S    EENTRO =        -0.00000000
  eigenvalues    EBANDS =        70.37220953
  atomic energy  EATOM  =      5563.75431560
  Solvation  Ediel_sol  =         0.00000000
  ---------------------------------------------------
  free energy    TOTEN  =       -13.05211137 eV

  energy without entropy =      -13.05211136  energy(sigma->0) =      -13.05211137


--------------------------------------------------------------------------------------------------------




--------------------------------------- Iteration      1(   8)  ---------------------------------------


    POTLOK:  cpu time    0.0112: real time    0.0112
    SETDIJ:  cpu time    0.0021: real time    0.0021
    EDDIAG:  cpu time    0.0290: real time    0.0290
  RMM-DIIS:  cpu time    0.0845: real time    0.0845
    ORTHCH:  cpu time    0.0025: real time    0.0025
       DOS:  cpu time    0.0003: real time    0.0003
    CHARGE:  cpu time    0.0140: real time    0.0140
    MIXING:  cpu time    0.0005: real time    0.0005
    --------------------------------------------
      LOOP:  cpu time    0.1441: real time    0.1441

 eigenvalue-minimisations  :   528
 total energy-change (2. order) :-0.5498745E-03  (-0.3049728E-01)
 number of electron      44.0000032 magnetization 
 augmentation part       28.2175281 magnetization 

 Broyden mixing:
  rms(total) = 0.85538E-01    rms(broyden)= 0.85461E-01
  rms(prec ) = 0.19887E+00
  weight for this iteration     100.00

 eigenvalues of (default mixing * dielectric matrix)
  average eigenvalue GAMMA=   1.3996
  0.6388  0.9471  2.6128

 Free energy of the ion-electron system (eV)
  ---------------------------------------------------
  alpha Z        PSCENC =       169.77769609
  Ewald energy   TEWEN  =     -3896.85155591
  -Hartree energ DENC   =     -1678.72001433
  -exchange      EXHF   =         0.00000000
  -V(xc)+E(xc)   XCENC  =       176.65478892
  PAW double counting   =      4921.14411316    -5345.90404757
  entropy T*S    EENTRO =        -0.00000022
  eigenvalues    EBANDS =        77.09204302
  atomic energy  EATOM  =      5563.75431560
  Solvation  Ediel_sol  =         0.00000000
  ---------------------------------------------------
  free energy    TOTEN  =       -13.05266124 eV

  energy without entropy =      -13.05266102  energy(sigma->0) =      -13.05266113


--------------------------------------------------------------------------------------------------------




--------------------------------------- Iteration      1(   9)  ---------------------------------------


    POTLOK:  cpu time    0.0111: real time    0.0111
    SETDIJ:  cpu time    0.0021: real time    0.0021
    EDDIAG:  cpu time    0.0297: real time    0.0297
  RMM-DIIS:  cpu time    0.0872: real time    0.0872
    ORTHCH:  cpu time    0.0026: real time    0.0026
       DOS:  cpu time    0.0003: real time    0.0003
    CHARGE:  cpu time    0.0141: real time    0.0141
    MIXING:  cpu time    0.0006: real time    0.0006
    --------------------------------------------
      LOOP:  cpu time    0.1476: real time    0.1476

 eigenvalue-minimisations  :   542
 total energy-change (2. order) : 0.1294390E-01  (-0.4365292E-02)
 number of electron      44.0000032 magnetization 
 augmentation part       28.3535072 magnetization 

 Broyden mixing:
  rms(total) = 0.79450E-02    rms(broyden)= 0.79164E-02
  rms(prec ) = 0.16213E-01
  weight for this iteration     100.00

 eigenvalues of (default mixing * dielectric matrix)
  average eigenvalue GAMMA=   1.6226
  0.6430  0.9079  2.9763  1.9632

 Free energy of the ion-electron system (eV)
  ---------------------------------------------------
  alpha Z        PSCENC =       169.77769609
  Ewald energy   TEWEN  =     -3896.85155591
  -Hartree energ DENC   =     -1671.36425214
  -exchange      EXHF   =         0.00000000
  -V(xc)+E(xc)   XCENC  =       176.34793950
  PAW double counting   =      4934.41191863    -5360.29622389
  entropy T*S    EENTRO =        -0.00000001
  eigenvalues    EBANDS =        71.18044478
  atomic energy  EATOM  =      5563.75431560
  Solvation  Ediel_sol  =         0.00000000
  ---------------------------------------------------
  free energy    TOTEN  =       -13.03971734 eV

  energy without entropy =      -13.03971733  energy(sigma->0) =      -13.03971734


--------------------------------------------------------------------------------------------------------




--------------------------------------- Iteration      1(  10)  ---------------------------------------


    POTLOK:  cpu time    0.0112: real time    0.0112
    SETDIJ:  cpu time    0.0021: real time    0.0021
    EDDIAG:  cpu time    0.0294: real time    0.0294
  RMM-DIIS:  cpu time    0.0897: real time    0.0897
    ORTHCH:  cpu time    0.0025: real time    0.0025
       DOS:  cpu time    0.0003: real time    0.0003
    CHARGE:  cpu time    0.0139: real time    0.0139
    MIXING:  cpu time    0.0005: real time    0.0005
    --------------------------------------------
      LOOP:  cpu time    0.1497: real time    0.1497

 eigenvalue-minimisations  :   548
 total energy-change (2. order) :-0.1883395E-03  (-0.1651578E-03)
 number of electron      44.0000032 magnetization 
 augmentation part       28.3546980 magnetization 

 Broyden mixing:
  rms(total) = 0.67156E-02    rms(broyden)= 0.67148E-02
  rms(prec ) = 0.14498E-01
  weight for this iteration     100.00

 eigenvalues of (default mixing * dielectric matrix)
  average eigenvalue GAMMA=   1.4931
  3.1094  2.0210  0.6378  0.8487  0.8487

 Free energy of the ion-electron system (eV)
  ---------------------------------------------------
  alpha Z        PSCENC =       169.77769609
  Ewald energy   TEWEN  =     -3896.85155591
  -Hartree energ DENC   =     -1671.64779628
  -exchange      EXHF   =         0.00000000
  -V(xc)+E(xc)   XCENC  =       176.36256438
  PAW double counting   =      4935.55618800    -5361.22839613
  entropy T*S    EENTRO =        -0.00000001
  eigenvalues    EBANDS =        71.23707858
  atomic energy  EATOM  =      5563.75431560
  Solvation  Ediel_sol  =         0.00000000
  ---------------------------------------------------
  free energy    TOTEN  =       -13.03990568 eV

  energy without entropy =      -13.03990567  energy(sigma->0) =      -13.03990568


--------------------------------------------------------------------------------------------------------




--------------------------------------- Iteration      1(  11)  ---------------------------------------


    POTLOK:  cpu time    0.0112: real time    0.0112
    SETDIJ:  cpu time    0.0022: real time    0.0022
    EDDIAG:  cpu time    0.0291: real time    0.0291
  RMM-DIIS:  cpu time    0.0868: real time    0.0868
    ORTHCH:  cpu time    0.0025: real time    0.0025
       DOS:  cpu time    0.0003: real time    0.0003
    CHARGE:  cpu time    0.0145: real time    0.0145
    MIXING:  cpu time    0.0005: real time    0.0005
    --------------------------------------------
      LOOP:  cpu time    0.1472: real time    0.1472

 eigenvalue-minimisations  :   540
 total energy-change (2. order) : 0.3642125E-04  (-0.3379394E-04)
 number of electron      44.0000032 magnetization 
 augmentation part       28.3478086 magnetization 

 Broyden mixing:
  rms(total) = 0.96105E-03    rms(broyden)= 0.95894E-03
  rms(prec ) = 0.23673E-02
  weight for this iteration     100.00

 eigenvalues of (default mixing * dielectric matrix)
  average eigenvalue GAMMA=   1.4912
  2.7079  2.4573  0.6411  0.9645  0.9645  1.2118

 Free energy of the ion-electron system (eV)
  ---------------------------------------------------
  alpha Z        PSCENC =       169.77769609
  Ewald energy   TEWEN  =     -3896.85155591
  -Hartree energ DENC   =     -1672.12348366
  -exchange      EXHF   =         0.00000000
  -V(xc)+E(xc)   XCENC  =       176.38505487
  PAW double counting   =      4936.08928045    -5361.56130878
  entropy T*S    EENTRO =        -0.00000001
  eigenvalues    EBANDS =        71.49013210
  atomic energy  EATOM  =      5563.75431560
  Solvation  Ediel_sol  =         0.00000000
  ---------------------------------------------------
  free energy    TOTEN  =       -13.03986926 eV

  energy without entropy =      -13.03986925  energy(sigma->0) =      -13.03986925


--------------------------------------------------------------------------------------------------------




--------------------------------------- Iteration      1(  12)  ---------------------------------------


    POTLOK:  cpu time    0.0113: real time    0.0113
    SETDIJ:  cpu time    0.0021: real time    0.0021
    EDDIAG:  cpu time    0.0288: real time    0.0288
  RMM-DIIS:  cpu time    0.0546: real time    0.0546
    ORTHCH:  cpu time    0.0025: real time    0.0025
       DOS:  cpu time    0.0003: real time    0.0003
    --------------------------------------------
      LOOP:  cpu time    0.0997: real time    0.0997

 eigenvalue-minimisations  :   298
 total energy-change (2. order) : 0.4349591E-05  (-0.1132751E-05)
 number of electron      44.0000032 magnetization 
 augmentation part       28.3478086 magnetization 

 Free energy of the ion-electron system (eV)
  ---------------------------------------------------
  alpha Z        PSCENC =       169.77769609
  Ewald energy   TEWEN  =     -3896.85155591
  -Hartree energ DENC   =     -1672.22268236
  -exchange      EXHF   =         0.00000000
  -V(xc)+E(xc)   XCENC  =       176.38870557
  PAW double counting   =      4935.66079287    -5361.06390918
  entropy T*S    EENTRO =        -0.00000001
  eigenvalues    EBANDS =        71.51677243
  atomic energy  EATOM  =      5563.75431560
  Solvation  Ediel_sol  =         0.00000000
  ---------------------------------------------------
  free energy    TOTEN  =       -13.03986491 eV

  energy without entropy =      -13.03986490  energy(sigma->0) =      -13.03986491


--------------------------------------------------------------------------------------------------------




 average (electrostatic) potential at core
  the test charge radii are     0.9430
  (the norm of the test charge is              1.0000)
       1 -66.8166       2 -66.8166       3 -66.8166       4 -66.8166
 
 
 
 E-fermi :   3.7291     XC(G=0): -10.6772     alpha+bet : -9.2015


 k-point     1 :       0.0833    0.0833    0.0833
  band No.  band energies     occupation 
      1      -2.9154      2.00000
      2       0.6614      2.00000
      3       0.6614      2.00000
      4       0.6614      2.00000
      5       0.9154      2.00000
      6       0.9154      2.00000
      7       0.9154      2.00000
      8       1.6143      2.00000
      9       1.6676      2.00000
     10       1.6676      2.00000
     11       2.0899      2.00000
     12       2.0899      2.00000
     13       2.3514      2.00000
     14       2.3514      2.00000
     15       2.3514      2.00000
     16       2.3616      2.00000
     17       2.3616      2.00000
     18       2.3616      2.00000
     19       2.4717      2.00000
     20       2.4717      2.00000
     21       2.4717      2.00000
     22       5.1841      0.00000
     23       5.1841      0.00000
     24       5.1841      0.00000
     25       9.3247      0.00000
     26       9.3247      0.00000

 k-point     2 :       0.2500    0.0833    0.0833
  band No.  band energies     occupation 
      1      -2.4075      2.00000
      2       0.5535      2.00000
      3       0.8358      2.00000
      4       0.8358      2.00000
      5       1.0095      2.00000
      6       1.0224      2.00000
      7       1.0224      2.00000
      8       1.5261      2.00000
      9       1.7396      2.00000
     10       1.7426      2.00000
     11       1.9769      2.00000
     12       1.9769      2.00000
     13       2.0133      2.00000
     14       2.1392      2.00000
     15       2.1423      2.00000
     16       2.2533      2.00000
     17       2.2621      2.00000
     18       2.2621      2.00000
     19       2.4120      2.00000
     20       2.4612      2.00000
     21       2.4612      2.00000
     22       3.2522      2.00000
     23       5.9610      0.00000
     24       5.9610      0.00000
     25       9.6318      0.00000
     26       9.6318      0.00000

 k-point     3 :       0.4167    0.0833    0.0833
  band No.  band energies     occupation 
      1      -1.4350      2.00000
      2      -0.1983      2.00000
      3       1.0653      2.00000
      4       1.0653      2.00000
      5       1.1724      2.00000
      6       1.2263      2.00000
      7       1.2263      2.00000
      8       1.3614      2.00000
      9       1.5589      2.00000
     10       1.5589      2.00000
     11       1.7928      2.00000
     12       1.8109      2.00000
     13       1.8851      2.00000
     14       2.0168      2.00000
     15       2.0720      2.00000
     16       2.1136      2.00000
     17       2.1136      2.00000
     18       2.2243      2.00000
     19       2.3083      2.00000
     20       2.3228      2.00000
     21       2.4570      2.00000
     22       2.4570      2.00000
     23       7.1813      0.00000
     24       7.1813      0.00000
     25       8.7148      0.00000
     26       8.7148      0.00000

 k-point     4 :       0.2500    0.2500    0.0833
  band No.  band energies     occupation 
      1      -1.9158      2.00000
      2       0.7724      2.00000
      3       0.7724      2.00000
      4       0.9474      2.00000
      5       1.1050      2.00000
      6       1.1050      2.00000
      7       1.1148      2.00000
      8       1.4978      2.00000
      9       1.7424      2.00000
     10       1.7541      2.00000
     11       1.7541      2.00000
     12       1.7693      2.00000
     13       1.8189      2.00000
     14       2.0146      2.00000
     15       2.1542      2.00000
     16       2.1872      2.00000
     17       2.1876      2.00000
     18       2.1876      2.00000
     19       2.3901      2.00000
     20       2.3901      2.00000
     21       2.4000      2.00000
     22       3.9280      0.00000
     23       3.9280      0.00000
     24       6.6222      0.00000
     25       8.2346      0.00000
     26      10.1457      0.00000

 k-point     5 :       0.4167    0.2500    0.0833
  band No.  band energies     occupation 
      1      -0.9876      2.00000
      2       0.1427      2.00000
      3       1.0579      2.00000
      4       1.1012      2.00000
      5       1.2314      2.00000
      6       1.2448      2.00000
      7       1.2689      2.00000
      8       1.3918      2.00000
      9       1.4486      2.00000
     10       1.5660      2.00000
     11       1.6155      2.00000
     12       1.7034      2.00000
     13       1.8628      2.00000
     14       2.0166      2.00000
     15       2.0489      2.00000
     16       2.0569      2.00000
     17       2.0782      2.00000
     18       2.2551      2.00000
     19       2.3536      2.00000
     20       2.3559      2.00000
     21       2.3563      2.00000
     22       2.7395      2.00000
     23       4.9410      0.00000
     24       6.3490      0.00000
     25       7.7664      0.00000
     26       9.2833      0.00000

 k-point     6 :       0.4167    0.4167    0.0833
  band No.  band energies     occupation 
      1      -0.1921      2.00000
      2       0.6317      2.00000
      3       0.6317      2.00000
      4       0.9549      2.00000
      5       1.3891      2.00000
      6       1.3921      2.00000
      7       1.3921      2.00000
      8       1.4161      2.00000
      9       1.4861      2.00000
     10       1.4861      2.00000
     11       1.5277      2.00000
     12       1.6363      2.00000
     13       1.8547      2.00000
     14       1.9461      2.00000
     15       1.9501      2.00000
     16       1.9501      2.00000
     17       2.0570      2.00000
     18       2.1984      2.00000
     19       2.1984      2.00000
     20       2.2422      2.00000
     21       2.6818      2.00000
     22       3.3935      2.00000
     23       3.3935      2.00000
     24       4.5399      0.00000
     25       8.8418      0.00000
     26      10.3512      0.00000

 k-point     7 :       0.2500    0.2500    0.2500
  band No.  band energies     occupation 
      1      -1.4521      2.00000
      2       0.8401      2.00000
      3       0.8401      2.00000
      4       0.8401      2.00000
      5       1.2264      2.00000
      6       1.2264      2.00000
      7       1.2264      2.00000
      8       1.5279      2.00000
      9       1.6878      2.00000
     10       1.6878      2.00000
     11       1.6878      2.00000
     12       1.7317      2.00000
     13       1.7317      2.00000
     14       2.0059      2.00000
     15       2.0059      2.00000
     16       2.0059      2.00000
     17       2.1479      2.00000
     18       2.1479      2.00000
     19       2.4369      2.00000
     20       2.4369      2.00000
     21       2.4369      2.00000
     22       4.4326      0.00000
     23       4.4326      0.00000
     24       4.4326      0.00000
     25       8.8016      0.00000
     26       8.8016      0.00000

 k-point     8 :       0.4167    0.2500    0.2500
  band No.  band energies     occupation 
      1      -0.6071      2.00000
      2       0.3264      2.00000
      3       0.8896      2.00000
      4       0.8896      2.00000
      5       1.3565      2.00000
      6       1.3565      2.00000
      7       1.4060      2.00000
      8       1.5163      2.00000
      9       1.6097      2.00000
     10       1.6516      2.00000
     11       1.6516      2.00000
     12       1.6849      2.00000
     13       1.7546      2.00000
     14       1.8529      2.00000
     15       1.9182      2.00000
     16       1.9182      2.00000
     17       2.2676      2.00000
     18       2.2961      2.00000
     19       2.3956      2.00000
     20       2.3956      2.00000
     21       2.4032      2.00000
     22       2.9235      2.00000
     23       5.3213      0.00000
     24       5.3213      0.00000
     25       6.9522      0.00000
     26       6.9522      0.00000

 k-point     9 :       0.4167    0.4167    0.2500
  band No.  band energies     occupation 
      1      -0.0030      2.00000
      2       0.5323      2.00000
      3       0.5323      2.00000
      4       0.7059      2.00000
      5       1.4830      2.00000
      6       1.5349      2.00000
      7       1.5349      2.00000
      8       1.6461      2.00000
      9       1.7133      2.00000
     10       1.7365      2.00000
     11       1.7365      2.00000
     12       1.7566      2.00000
     13       1.7932      2.00000
     14       1.8004      2.00000
     15       1.8004      2.00000
     16       1.8259      2.00000
     17       2.2402      2.00000
     18       2.3595      2.00000
     19       2.3595      2.00000
     20       2.3618      2.00000
     21       2.6054      2.00000
     22       3.5436      2.00000
     23       3.5436      2.00000
     24       4.7213      0.00000
     25       6.5991      0.00000
     26       7.9548      0.00000

 k-point    10 :       0.4167    0.4167    0.4167
  band No.  band energies     occupation 
      1       0.2326      2.00000
      2       0.4586      2.00000
      3       0.4586      2.00000
      4       0.4586      2.00000
      5       1.5893      2.00000
      6       1.5893      2.00000
      7       1.5893      2.00000
      8       1.6475      2.00000
      9       1.6475      2.00000
     10       1.6784      2.00000
     11       1.6784      2.00000
     12       1.6784      2.00000
     13       2.1488      2.00000
     14       2.1488      2.00000
     15       2.1488      2.00000
     16       2.3739      2.00000
     17       2.3739      2.00000
     18       2.4178      2.00000
     19       2.4178      2.00000
     20       2.4178      2.00000
     21       2.6411      2.00000
     22       3.9110      0.00000
     23       3.9110      0.00000
     24       3.9110      0.00000
     25       6.2842      0.00000
     26       6.2842      0.00000


--------------------------------------------------------------------------------------------------------


 soft charge-density along one line, spin component           1
         0         1         2         3         4         5         6         7         8         9
 total charge-density along one line
 
 pseudopotential strength for first ion, spin component:           1
 -5.150  -0.000   0.000   0.000  -0.000  -3.038   0.000  -0.000
 -0.000  -5.150   0.000  -0.000  -0.000   0.000  -3.038  -0.000
  0.000   0.000  -5.139  -0.000  -0.000  -0.000  -0.000  -3.046
  0.000  -0.000  -0.000  -5.150  -0.000  -0.000   0.000   0.000
 -0.000  -0.000  -0.000  -0.000  -5.139   0.000   0.000   0.000
 -3.038   0.000  -0.000  -0.000   0.000   9.123  -0.000   0.000
  0.000  -3.038  -0.000   0.000   0.000  -0.000   9.123   0.000
 -0.000  -0.000  -3.046   0.000   0.000   0.000   0.000   9.130
 -0.000   0.000   0.000  -3.038   0.000   0.000  -0.000  -0.000
  0.000   0.000   0.000   0.000  -3.046  -0.000  -0.000  -0.000
  0.000  -0.000   0.000   0.000  -0.000   0.000  -0.000  -0.000
  0.000  -0.000   0.000   0.000   0.000   0.000  -0.000  -0.000
  0.000  -0.000   0.000   0.000   0.000  -0.000   0.000   0.000
  0.000  -0.000  -0.000   0.000  -0.000   0.000   0.000   0.000
 -0.000   0.000  -0.000  -0.000   0.000  -0.000   0.000   0.000
  0.000  -0.000   0.000  -0.000   0.000   0.000   0.000   0.000
 -0.000  -0.000  -0.000   0.000   0.000   0.000  -0.000   0.000
 -0.000  -0.000  -0.000  -0.000   0.000  -0.000   0.000   0.000
 total augmentation occupancy for first ion, spin component:           1
  1.910   0.000  -0.000  -0.000   0.000  -0.030  -0.000  -0.000  -0.000  -0.000  -0.000   0.000  -0.000   0.000   0.000   0.000
  0.000   1.910   0.000  -0.000  -0.000  -0.000  -0.030   0.000   0.000   0.000  -0.000   0.000  -0.000   0.000  -0.000   0.000
 -0.000  -0.000   1.930  -0.000   0.000   0.000   0.000  -0.040   0.000  -0.000   0.000  -0.000  -0.000  -0.000   0.000   0.000
 -0.000  -0.000  -0.000   1.910   0.000  -0.000  -0.000   0.000  -0.030  -0.000  -0.000  -0.000   0.000   0.000  -0.000   0.000
 -0.000  -0.000   0.000   0.000   1.930   0.000   0.000   0.000  -0.000  -0.040  -0.000  -0.000   0.000  -0.000  -0.000   0.000
 -0.030   0.000   0.000  -0.000   0.000   0.007  -0.000  -0.000  -0.000   0.000  -0.000   0.000  -0.000   0.000   0.000   0.000
 -0.000  -0.030   0.000   0.000   0.000   0.000   0.007  -0.000  -0.000  -0.000  -0.000   0.000  -0.000  -0.000   0.000  -0.000
  0.000  -0.000  -0.040   0.000   0.000  -0.000   0.000   0.006  -0.000   0.000  -0.000   0.000   0.000  -0.000   0.000   0.000
 -0.000   0.000  -0.000  -0.030  -0.000  -0.000  -0.000  -0.000   0.007   0.000  -0.000  -0.000  -0.000   0.000   0.000   0.000
 -0.000  -0.000  -0.000   0.000  -0.040   0.000  -0.000   0.000   0.000   0.006  -0.000   0.000  -0.000   0.000  -0.000  -0.000
 -0.000  -0.000   0.000  -0.000  -0.000  -0.000  -0.000  -0.000  -0.000   0.000   1.304  -0.092   0.000   0.000   0.000   0.000
  0.000   0.000  -0.000  -0.000  -0.000   0.000   0.000   0.000  -0.000   0.000  -0.092   0.009   0.000   0.000   0.000   0.000
 -0.000  -0.000  -0.000   0.000  -0.000  -0.000  -0.000   0.000  -0.000  -0.000   0.000   0.000   0.114  -0.000   0.000  -0.007
  0.000   0.000  -0.000   0.000   0.000   0.000  -0.000   0.000   0.000  -0.000   0.000   0.000  -0.000   0.114  -0.000   0.000
  0.000  -0.000   0.000  -0.000  -0.000   0.000   0.000  -0.000   0.000  -0.000   0.000   0.000  -0.000   0.000   0.114   0.000
  0.000   0.000   0.000   0.000  -0.000   0.000  -0.000  -0.000   0.000  -0.000   0.000   0.000  -0.007   0.000   0.000   0.000
 -0.000  -0.000   0.000  -0.000   0.000   0.000  -0.000   0.000   0.000   0.000   0.000   0.000  -0.000  -0.007  -0.000  -0.000
  0.000   0.000   0.000  -0.000  -0.000   0.000   0.000  -0.000  -0.000  -0.000   0.000   0.000  -0.000   0.000  -0.007   0.000


------------------------ aborting loop because EDIFF is reached ----------------------------------------


    CHARGE:  cpu time    0.0151: real time    0.0151
    FORLOC:  cpu time    0.0009: real time    0.0009
    FORNL :  cpu time    0.0326: real time    0.0326
    STRESS:  cpu time    0.0505: real time    0.0505
    FORCOR:  cpu time    0.0118: real time    0.0118
    FORHAR:  cpu time    0.0028: real time    0.0028
    MIXING:  cpu time    0.0006: real time    0.0006
    OFIELD:  cpu time    0.0000: real time    0.0000

  FORCE on cell =-STRESS in cart. coord.  units (eV):
  Direction    XX          YY          ZZ          XY          YZ          ZX
  --------------------------------------------------------------------------------------
  Alpha Z   169.77770   169.77770   169.77770
  Ewald   -1298.95109 -1298.95109 -1298.95109    -0.00000     0.00000     0.00000
  Hartree   557.43493   557.43493   557.43493    -0.00000    -0.00000    -0.00000
  E(xc)    -255.49755  -255.49755  -255.49755    -0.00000     0.00000    -0.00000
  Local     191.59388   191.59388   191.59388    -0.00000     0.00000     0.00000
  n-local   -99.17773  -105.64178  -107.24990     0.15903     2.64153     1.50012
  augment   376.98543   376.98543   376.98543    -0.00000     0.00000    -0.00000
  Kinetic   359.69113   353.02699   347.92892    -3.11176     0.40634    -0.61663
  Fock        0.00000     0.00000     0.00000     0.00000     0.00000     0.00000
  -------------------------------------------------------------------------------------
  Total      -9.13082    -9.13082    -9.13082     0.00000    -0.00000    -0.00000
  in kB    -212.26041  -212.26041  -212.26041     0.00000    -0.00000    -0.00000
  external pressure =     -212.26 kB  Pullay stress =        0.00 kB


 VOLUME and BASIS-vectors are now :
 -----------------------------------------------------------------------------
  energy-cutoff  :      300.00
  volume of cell :       68.92
      direct lattice vectors                 reciprocal lattice vectors
     4.100000000  0.000000000  0.000000000     0.243902439  0.000000000  0.000000000
     0.000000000  4.100000000  0.000000000     0.000000000  0.243902439  0.000000000
     0.000000000  0.000000000  4.100000000     0.000000000  0.000000000  0.243902439

  length of vectors
     4.100000000  4.100000000  4.100000000     0.243902439  0.243902439  0.243902439


 FORCES acting on ions
    electron-ion (+dipol)            ewald-force                    non-local-force                 convergence-correction
 -----------------------------------------------------------------------------------------------
   -.179E-13 -.701E-13 -.856E-13   0.249E-14 -.104E-13 -.757E-14   -.463E-22 0.529E-22 0.397E-22   -.183E-13 -.439E-13 -.487E-13
   -.192E-13 0.724E-12 0.709E-12   0.225E-14 0.420E-14 0.499E-14   0.000E+00 0.000E+00 0.265E-22   -.230E-13 -.168E-13 0.230E-13
   0.762E-12 -.698E-13 -.478E-11   -.172E-14 -.500E-14 0.514E-14   0.273E-22 0.794E-22 0.232E-22   0.303E-13 -.110E-13 0.381E-13
   0.755E-12 -.348E-11 -.483E-11   -.196E-14 0.961E-14 0.194E-15   -.331E-22 0.364E-22 -.248E-23   0.382E-13 -.913E-14 -.612E-13
 -----------------------------------------------------------------------------------------------
   0.148E-11 -.289E-11 -.899E-11   0.105E-14 -.160E-14 0.275E-14   -.521E-22 0.169E-21 0.869E-22   0.273E-13 -.808E-13 -.488E-13
 
 
 POSITION                                       TOTAL-FORCE (eV/Angst)
 -----------------------------------------------------------------------------------
      0.00000      0.00000      0.00000        -0.000000      0.000000     -0.000000
      0.00000      2.05000      2.05000         0.000000      0.000000      0.000000
      2.05000      0.00000      2.05000        -0.000000      0.000000     -0.000000
      2.05000      2.05000      0.00000         0.000000     -0.000000     -0.000000
 -----------------------------------------------------------------------------------
    total drift:                                0.000000     -0.000000     -0.000000


--------------------------------------------------------------------------------------------------------



  FREE ENERGIE OF THE ION-ELECTRON SYSTEM (eV)
  ---------------------------------------------------
  free  energy   TOTEN  =       -13.03986491 eV

  energy  without entropy=      -13.03986490  energy(sigma->0) =      -13.03986491
 


--------------------------------------------------------------------------------------------------------


    POTLOK:  cpu time    0.0138: real time    0.0138


--------------------------------------------------------------------------------------------------------


     LOOP+:  cpu time    2.1166: real time    2.1724
    4ORBIT:  cpu time    0.0000: real time    0.0000

 total amount of memory used by VASP MPI-rank0    34396. kBytes
=======================================================================

   base      :      30000. kBytes
   nonl-proj :        619. kBytes
   fftplans  :       1170. kBytes
   grid      :       1645. kBytes
   one-center:         31. kBytes
   wavefun   :        931. kBytes
 
  
  
 General timing and accounting informations for this job:
 ========================================================
  
                  Total CPU time used (sec):        2.888
                            User time (sec):        2.637
                          System time (sec):        0.251
                         Elapsed time (sec):        3.356
  
                   Maximum memory used (kb):      161500.
                   Average memory used (kb):           0.
  
                          Minor page faults:        29644
                          Major page faults:            0
                 Voluntary context switches:         1101
