Attempting to create directory /home/ankit/perl5
 running on    4 total cores
 distrk:  each k-point on    4 cores,    1 groups
 distr:  one band on    2 cores,    2 groups
 using from now: INCAR     
 vasp.5.4.4.18Apr17-6-g9f103f2a35 (build Jan 01 2020 16:14:11) complex          
  
 POSCAR found :  1 types and       4 ions
 scaLAPACK will be used
 LDA part: xc-table for Pade appr. of Perdew
 POSCAR, INCAR and KPOINTS ok, starting setup
 FFT: planning ...
 WAVECAR not read
 entering main loop
       N       E                     dE             d eps       ncg     rms          rms(c)
DAV:   1     0.281903539734E+03    0.28190E+03   -0.14401E+04   528   0.175E+03
DAV:   2     0.506748067664E+01   -0.27684E+03   -0.27180E+03   520   0.358E+02
DAV:   3    -0.151193305602E+02   -0.20187E+02   -0.19218E+02   564   0.137E+02
DAV:   4    -0.155785188322E+02   -0.45919E+00   -0.45696E+00   630   0.248E+01
DAV:   5    -0.155840110283E+02   -0.54922E-02   -0.54899E-02   618   0.186E+00    0.132E+01
RMM:   6    -0.151348849833E+02    0.44913E+00   -0.43189E+01   529   0.958E+01    0.101E+01
RMM:   7    -0.130521113692E+02    0.20828E+01   -0.87157E+00   522   0.479E+01    0.759E-01
RMM:   8    -0.130526612436E+02   -0.54987E-03   -0.30497E-01   528   0.791E+00    0.855E-01
RMM:   9    -0.130397173429E+02    0.12944E-01   -0.43653E-02   542   0.320E+00    0.794E-02
RMM:  10    -0.130399056824E+02   -0.18834E-03   -0.16516E-03   548   0.230E-01    0.672E-02
RMM:  11    -0.130398692611E+02    0.36421E-04   -0.33794E-04   540   0.262E-01    0.961E-03
RMM:  12    -0.130398649116E+02    0.43496E-05   -0.11328E-05   298   0.219E-02
   1 F= -.13039865E+02 E0= -.13039865E+02  d E =-.130304E-07
