   4   4   0   0
  0.1166400E+02  0.3600000E-09  0.3600000E-09  0.3600000E-09  0.5000000E-15
  1.000000000000000E-004
  CAR 
 unknown system                          
     17.41683734     -2.35240840  301      7.49362639      1.00000000
     -2.352  0.0000E+00  0.0000E+00
     -2.287  0.0000E+00  0.0000E+00
     -2.221  0.0000E+00  0.0000E+00
     -2.155  0.0000E+00  0.0000E+00
     -2.089  0.0000E+00  0.0000E+00
     -2.023  0.0000E+00  0.0000E+00
     -1.957  0.0000E+00  0.0000E+00
     -1.891  0.0000E+00  0.0000E+00
     -1.825  0.0000E+00  0.0000E+00
     -1.759  0.0000E+00  0.0000E+00
     -1.693  0.6864E-11  0.4523E-12
     -1.628  0.5020E-06  0.3308E-07
     -1.562  0.1286E-02  0.8477E-04
     -1.496  0.1311E+00  0.8725E-02
     -1.430  0.7118E+00  0.5563E-01
     -1.364  0.2736E+00  0.7367E-01
     -1.298  0.6195E-02  0.7407E-01
     -1.232  0.5932E-05  0.7407E-01
     -1.166  0.2038E-09  0.7407E-01
     -1.100  0.2496E-15  0.7407E-01
     -1.034  0.7791E-11  0.7407E-01
     -0.969  0.7337E-06  0.7407E-01
     -0.903  0.2406E-02  0.7423E-01
     -0.837  0.3097E+00  0.9464E-01
     -0.771  0.2065E+01  0.2307E+00
     -0.705  0.9675E+00  0.2945E+00
     -0.639  0.2742E-01  0.2963E+00
     -0.573  0.3349E-04  0.2963E+00
     -0.507  0.1479E-08  0.2963E+00
     -0.441  0.3182E-14  0.2963E+00
     -0.375  0.7318E-09  0.2963E+00
     -0.310  0.2025E-04  0.2963E+00
     -0.244  0.2013E-01  0.2976E+00
     -0.178  0.8497E+00  0.3536E+00
     -0.112  0.2124E+01  0.4936E+00
     -0.046  0.3753E+00  0.5183E+00
      0.020  0.3512E-02  0.5185E+00
      0.086  0.1305E-05  0.5185E+00
      0.152  0.1695E-10  0.5185E+00
      0.218  0.1042E-08  0.5185E+00
      0.283  0.2087E-04  0.5185E+00
      0.349  0.1760E-01  0.5197E+00
      0.415  0.8204E+00  0.5737E+00
      0.481  0.2828E+01  0.7601E+00
      0.547  0.8152E+00  0.8138E+00
      0.613  0.1482E-01  0.8148E+00
      0.679  0.1180E-04  0.8148E+00
      0.745  0.3413E-09  0.8148E+00
      0.811  0.1450E-07  0.8148E+00
      0.877  0.2062E-03  0.8148E+00
      0.942  0.1077E+00  0.8219E+00
      1.008  0.2519E+01  0.9879E+00
      1.074  0.3735E+01  0.1234E+01
      1.140  0.3804E+00  0.1259E+01
      1.206  0.1910E-02  0.1259E+01
      1.272  0.3958E-06  0.1259E+01
      1.338  0.2647E-03  0.1259E+01
      1.404  0.9312E-01  0.1265E+01
      1.470  0.1523E+01  0.1366E+01
      1.536  0.1638E+01  0.1474E+01
      1.601  0.1176E+00  0.1481E+01
      1.667  0.3998E-03  0.1481E+01
      1.733  0.5670E-07  0.1481E+01
      1.799  0.8585E-04  0.1481E+01
      1.865  0.4853E-01  0.1485E+01
      1.931  0.1294E+01  0.1570E+01
      1.997  0.3381E+01  0.1793E+01
      2.063  0.1893E+01  0.1917E+01
      2.129  0.4166E+00  0.1945E+01
      2.195  0.2038E+01  0.2079E+01
      2.260  0.1018E+01  0.2146E+01
      2.326  0.4756E+00  0.2178E+01
      2.392  0.4143E+01  0.2451E+01
      2.458  0.3062E+01  0.2652E+01
      2.524  0.3065E+00  0.2673E+01
      2.590  0.1517E+01  0.2773E+01
      2.656  0.1940E+01  0.2900E+01
      2.722  0.2640E+01  0.3074E+01
      2.788  0.3855E+01  0.3328E+01
      2.853  0.6270E+01  0.3742E+01
      2.919  0.3757E+01  0.3989E+01
      2.985  0.1817E+01  0.4109E+01
      3.051  0.6078E+01  0.4509E+01
      3.117  0.8760E+01  0.5087E+01
      3.183  0.6523E+01  0.5517E+01
      3.249  0.3108E+01  0.5721E+01
      3.315  0.4916E+01  0.6045E+01
      3.381  0.7716E+01  0.6554E+01
      3.447  0.4893E+01  0.6876E+01
      3.512  0.1212E+02  0.7675E+01
      3.578  0.1079E+02  0.8386E+01
      3.644  0.9345E+01  0.9002E+01
      3.710  0.7805E+01  0.9516E+01
      3.776  0.5882E+01  0.9904E+01
      3.842  0.1120E+02  0.1064E+02
      3.908  0.1201E+02  0.1143E+02
      3.974  0.5439E+01  0.1179E+02
      4.040  0.4334E+01  0.1208E+02
      4.106  0.8809E+01  0.1266E+02
      4.171  0.1399E+02  0.1358E+02
      4.237  0.7712E+01  0.1409E+02
      4.303  0.8644E+01  0.1466E+02
      4.369  0.1438E+02  0.1561E+02
      4.435  0.1788E+02  0.1678E+02
      4.501  0.9767E+01  0.1743E+02
      4.567  0.9363E+01  0.1804E+02
      4.633  0.1572E+02  0.1908E+02
      4.699  0.1631E+02  0.2016E+02
      4.765  0.1779E+02  0.2133E+02
      4.830  0.1848E+02  0.2255E+02
      4.896  0.1977E+02  0.2385E+02
      4.962  0.1326E+02  0.2472E+02
      5.028  0.6631E+01  0.2516E+02
      5.094  0.9879E+01  0.2581E+02
      5.160  0.1039E+02  0.2649E+02
      5.226  0.1261E+02  0.2733E+02
      5.292  0.6257E+01  0.2774E+02
      5.358  0.1677E+02  0.2884E+02
      5.423  0.2082E+02  0.3022E+02
      5.489  0.1416E+02  0.3115E+02
      5.555  0.9567E+01  0.3178E+02
      5.621  0.9899E+01  0.3243E+02
      5.687  0.1240E+02  0.3325E+02
      5.753  0.1613E+02  0.3431E+02
      5.819  0.1744E+02  0.3546E+02
      5.885  0.8190E+01  0.3600E+02
      5.951  0.1862E+02  0.3723E+02
      6.017  0.2697E+02  0.3900E+02
      6.082  0.1892E+02  0.4025E+02
      6.148  0.1326E+02  0.4113E+02
      6.214  0.9068E+01  0.4172E+02
      6.280  0.1606E+01  0.4183E+02
      6.346  0.2161E+01  0.4197E+02
      6.412  0.4964E+00  0.4200E+02
      6.478  0.1681E+01  0.4211E+02
      6.544  0.5435E+01  0.4247E+02
      6.610  0.2818E+01  0.4266E+02
      6.676  0.4243E+00  0.4269E+02
      6.741  0.2054E+01  0.4282E+02
      6.807  0.9876E+00  0.4289E+02
      6.873  0.2893E-01  0.4289E+02
      6.939  0.5526E-01  0.4289E+02
      7.005  0.1271E+01  0.4298E+02
      7.071  0.1858E+01  0.4310E+02
      7.137  0.1863E+00  0.4311E+02
      7.203  0.9198E-03  0.4311E+02
      7.269  0.1045E-04  0.4311E+02
      7.335  0.1424E-01  0.4311E+02
      7.400  0.1080E+01  0.4318E+02
      7.466  0.8193E+01  0.4372E+02
      7.532  0.7063E+01  0.4419E+02
      7.598  0.5082E+00  0.4422E+02
      7.664  0.1922E-02  0.4422E+02
      7.730  0.2903E-06  0.4422E+02
      7.796  0.7204E-11  0.4422E+02
      7.862  0.6885E-06  0.4422E+02
      7.928  0.2911E-02  0.4422E+02
      7.993  0.4765E+00  0.4425E+02
      8.059  0.3931E+01  0.4451E+02
      8.125  0.2253E+01  0.4466E+02
      8.191  0.8021E-01  0.4467E+02
      8.257  0.1257E-03  0.4467E+02
      8.323  0.7178E-08  0.4467E+02
      8.389  0.1404E-13  0.4467E+02
      8.455  0.4784E-09  0.4467E+02
      8.521  0.1492E-04  0.4467E+02
      8.587  0.1674E-01  0.4467E+02
      8.652  0.8310E+00  0.4472E+02
      8.718  0.3360E+01  0.4494E+02
      8.784  0.2325E+01  0.4510E+02
      8.850  0.2710E+00  0.4511E+02
      8.916  0.1307E+01  0.4520E+02
      8.982  0.1830E+01  0.4532E+02
      9.048  0.1941E+00  0.4533E+02
      9.114  0.8253E+00  0.4539E+02
      9.180  0.2134E+01  0.4553E+02
      9.246  0.3911E+00  0.4556E+02
      9.311  0.1949E-01  0.4556E+02
      9.377  0.1110E+01  0.4563E+02
      9.443  0.4373E+01  0.4592E+02
      9.509  0.1244E+01  0.4600E+02
      9.575  0.1176E+01  0.4608E+02
      9.641  0.4375E+01  0.4637E+02
      9.707  0.1179E+01  0.4644E+02
      9.773  0.1781E-01  0.4644E+02
      9.839  0.1103E-04  0.4644E+02
      9.905  0.2421E-09  0.4644E+02
      9.970  0.0000E+00  0.4644E+02
     10.036  0.0000E+00  0.4644E+02
     10.102  0.4268E-13  0.4644E+02
     10.168  0.1704E-07  0.4644E+02
     10.234  0.2309E-03  0.4644E+02
     10.300  0.1151E+00  0.4645E+02
     10.366  0.2581E+01  0.4662E+02
     10.432  0.3686E+01  0.4687E+02
     10.498  0.3604E+00  0.4689E+02
     10.563  0.1729E-02  0.4689E+02
     10.629  0.3173E-06  0.4689E+02
     10.695  0.2006E-11  0.4689E+02
     10.761  0.0000E+00  0.4689E+02
     10.827  0.0000E+00  0.4689E+02
     10.893  0.4110E-10  0.4689E+02
     10.959  0.3008E-05  0.4689E+02
     11.025  0.7708E-02  0.4689E+02
     11.091  0.7864E+00  0.4694E+02
     11.157  0.4271E+01  0.4722E+02
     11.222  0.1665E+01  0.4733E+02
     11.288  0.9315E+00  0.4739E+02
     11.354  0.2103E+01  0.4753E+02
     11.420  0.3490E+00  0.4756E+02
     11.486  0.3040E-02  0.4756E+02
     11.552  0.1047E-05  0.4756E+02
     11.618  0.5026E-09  0.4756E+02
     11.684  0.1354E-04  0.4756E+02
     11.750  0.1345E-01  0.4756E+02
     11.816  0.5670E+00  0.4759E+02
     11.881  0.1415E+01  0.4769E+02
     11.947  0.2499E+00  0.4770E+02
     12.013  0.3114E-01  0.4771E+02
     12.079  0.1831E+01  0.4783E+02
     12.145  0.6560E+01  0.4826E+02
     12.211  0.1673E+01  0.4837E+02
     12.277  0.2381E-01  0.4837E+02
     12.343  0.4932E-01  0.4837E+02
     12.409  0.1851E+01  0.4850E+02
     12.475  0.4175E+01  0.4877E+02
     12.540  0.6631E+00  0.4881E+02
     12.606  0.5498E-02  0.4881E+02
     12.672  0.1796E-05  0.4881E+02
     12.738  0.2046E-10  0.4881E+02
     12.804  0.3744E-15  0.4881E+02
     12.870  0.5718E-09  0.4881E+02
     12.936  0.2058E-04  0.4881E+02
     13.002  0.2642E-01  0.4882E+02
     13.068  0.1412E+01  0.4891E+02
     13.134  0.4344E+01  0.4920E+02
     13.199  0.9503E+00  0.4926E+02
     13.265  0.1133E-01  0.4926E+02
     13.331  0.5444E-05  0.4926E+02
     13.397  0.2705E-07  0.4926E+02
     13.463  0.2574E-03  0.4926E+02
     13.529  0.9164E-01  0.4927E+02
     13.595  0.1521E+01  0.4937E+02
     13.661  0.2119E+01  0.4951E+02
     13.727  0.2291E+01  0.4966E+02
     13.792  0.7089E+00  0.4970E+02
     13.858  0.1331E-01  0.4970E+02
     13.924  0.1042E-04  0.4970E+02
     13.990  0.3080E-09  0.4970E+02
     14.056  0.1575E-05  0.4970E+02
     14.122  0.5043E-02  0.4970E+02
     14.188  0.6345E+00  0.4975E+02
     14.254  0.4146E+01  0.5002E+02
     14.320  0.1906E+01  0.5014E+02
     14.386  0.5737E-01  0.5015E+02
     14.451  0.5200E+00  0.5018E+02
     14.517  0.3374E+01  0.5041E+02
     14.583  0.1667E+01  0.5051E+02
     14.649  0.5553E-01  0.5052E+02
     14.715  0.9046E-04  0.5052E+02
     14.781  0.5897E-08  0.5052E+02
     14.847  0.2324E-05  0.5052E+02
     14.913  0.6511E-02  0.5052E+02
     14.979  0.7226E+00  0.5057E+02
     15.045  0.4226E+01  0.5085E+02
     15.110  0.1746E+01  0.5096E+02
     15.176  0.4291E-01  0.5096E+02
     15.242  0.4489E-04  0.5096E+02
     15.308  0.1690E-08  0.5096E+02
     15.374  0.2246E-14  0.5096E+02
     15.440  0.2440E-12  0.5096E+02
     15.506  0.4947E-07  0.5096E+02
     15.572  0.3440E-03  0.5096E+02
     15.638  0.9045E-01  0.5097E+02
     15.704  0.1139E+01  0.5104E+02
     15.769  0.9654E+00  0.5111E+02
     15.835  0.5330E-01  0.5111E+02
     15.901  0.1416E-02  0.5111E+02
     15.967  0.3024E+00  0.5113E+02
     16.033  0.3507E+01  0.5136E+02
     16.099  0.2789E+01  0.5155E+02
     16.165  0.1452E+00  0.5156E+02
     16.231  0.3510E-03  0.5156E+02
     16.297  0.3861E-03  0.5156E+02
     16.362  0.1154E+00  0.5156E+02
     16.428  0.1647E+01  0.5167E+02
     16.494  0.2354E+01  0.5183E+02
     16.560  0.2231E+01  0.5197E+02
     16.626  0.3936E+00  0.5200E+02
     16.692  0.3858E-02  0.5200E+02
     16.758  0.1506E-05  0.5200E+02
     16.824  0.2059E-10  0.5200E+02
     16.890  0.0000E+00  0.5200E+02
     16.956  0.0000E+00  0.5200E+02
     17.021  0.0000E+00  0.5200E+02
     17.087  0.0000E+00  0.5200E+02
     17.153  0.0000E+00  0.5200E+02
     17.219  0.0000E+00  0.5200E+02
     17.285  0.0000E+00  0.5200E+02
     17.351  0.0000E+00  0.5200E+02
     17.417  0.0000E+00  0.5200E+02
