    4    4    1    1
  0.1166400E+02  0.3600000E-09  0.3600000E-09  0.3600000E-09  0.5000000E-15
  1.000000000000000E-004
  CAR 
 unknown system                          
     44     10     26
 
  0.8333333E-01  0.8333333E-01  0.8333333E-01  0.3703704E-01
    1       -1.453806   1.000000
    2        2.857998   1.000000
    3        2.857998   1.000000
    4        2.857998   1.000000
    5        3.305322   1.000000
    6        3.305322   1.000000
    7        3.305322   1.000000
    8        4.600177   1.000000
    9        4.701157   1.000000
   10        4.701157   1.000000
   11        5.480259   1.000000
   12        5.480259   1.000000
   13        5.899358   1.000000
   14        5.899358   1.000000
   15        5.899358   1.000000
   16        5.969670   1.000000
   17        5.969670   1.000000
   18        5.969670   1.000000
   19        6.172627   1.000000
   20        6.172627   1.000000
   21        6.172627   1.000000
   22        9.137593   0.000000
   23        9.137593   0.000000
   24        9.137593   0.000000
   25       15.699344   0.000000
   26       15.699344   0.000000
 
  0.2500000E+00  0.8333333E-01  0.8333333E-01  0.1111111E+00
    1       -0.789914   1.000000
    2        2.759409   1.000000
    3        3.141939   1.000000
    4        3.141939   1.000000
    5        3.473529   1.000000
    6        3.489547   1.000000
    7        3.489547   1.000000
    8        4.431030   1.000000
    9        4.829705   1.000000
   10        4.835092   1.000000
   11        5.176824   1.000000
   12        5.176824   1.000000
   13        5.331396   1.000000
   14        5.490864   1.000000
   15        5.568863   1.000000
   16        5.765739   1.000000
   17        5.775836   1.000000
   18        5.775836   1.000000
   19        6.064536   1.000000
   20        6.152306   1.000000
   21        6.152306   1.000000
   22        7.014596   1.000000
   23       10.374779   0.000000
   24       10.374779   0.000000
   25       16.024528   0.000000
   26       16.029856   0.000000
 
  0.4166667E+00  0.8333333E-01  0.8333333E-01  0.1111111E+00
    1        0.454014   1.000000
    2        1.942373   1.000000
    3        3.514628   1.000000
    4        3.514628   1.000000
    5        3.770466   1.000000
    6        3.845995   1.000000
    7        3.845995   1.000000
    8        4.121020   1.000000
    9        4.431383   1.000000
   10        4.431383   1.000000
   11        4.915883   1.000000
   12        4.929410   1.000000
   13        5.091342   1.000000
   14        5.325857   1.000000
   15        5.430951   1.000000
   16        5.501244   1.000000
   17        5.501244   1.000000
   18        5.722563   1.000000
   19        5.817804   1.000000
   20        5.901827   1.000000
   21        6.145076   1.000000
   22        6.145076   1.000000
   23       12.111063   0.000000
   24       12.111063   0.000000
   25       14.234233   0.000000
   26       14.234233   0.000000
 
  0.2500000E+00  0.2500000E+00  0.8333333E-01  0.1111111E+00
    1       -0.154821   1.000000
    2        3.093017   1.000000
    3        3.093017   1.000000
    4        3.361819   1.000000
    5        3.617438   1.000000
    6        3.634833   1.000000
    7        3.634833   1.000000
    8        4.367664   1.000000
    9        4.802714   1.000000
   10        4.802714   1.000000
   11        4.827812   1.000000
   12        4.884094   1.000000
   13        4.884119   1.000000
   14        5.330505   1.000000
   15        5.575638   1.000000
   16        5.632493   1.000000
   17        5.632493   1.000000
   18        5.652144   1.000000
   19        6.017796   1.000000
   20        6.017796   1.000000
   21        6.039952   1.000000
   22        8.045390   0.000000
   23        8.045390   0.000000
   24       11.309830   0.000000
   25       13.698561   0.000000
   26       16.518235   0.000000
 
  0.4166667E+00  0.2500000E+00  0.8333333E-01  0.2222222E+00
    1        1.018285   1.000000
    2        2.379758   1.000000
    3        3.550790   1.000000
    4        3.666468   1.000000
    5        3.787676   1.000000
    6        3.889568   1.000000
    7        3.901767   1.000000
    8        4.164461   1.000000
    9        4.262616   1.000000
   10        4.437431   1.000000
   11        4.581429   1.000000
   12        4.747171   1.000000
   13        5.049847   1.000000
   14        5.324299   1.000000
   15        5.378487   1.000000
   16        5.399868   1.000000
   17        5.425344   1.000000
   18        5.757807   1.000000
   19        5.949474   1.000000
   20        5.951421   1.000000
   21        5.958869   1.000000
   22        6.535821   1.000000
   23        9.411512   0.000000
   24       11.132624   0.000000
   25       13.095713   0.000000
   26       15.022354   0.000000
 
  0.4166667E+00  0.4166667E+00  0.8333333E-01  0.1111111E+00
    1        2.000164   1.000000
    2        3.010256   1.000000
    3        3.010256   1.000000
    4        3.451137   1.000000
    5        4.094063   1.000000
    6        4.121955   1.000000
    7        4.121955   1.000000
    8        4.190714   1.000000
    9        4.331590   1.000000
   10        4.331591   1.000000
   11        4.360676   1.000000
   12        4.605603   1.000000
   13        5.030590   1.000000
   14        5.191107   1.000000
   15        5.194724   1.000000
   16        5.194724   1.000000
   17        5.406139   1.000000
   18        5.662783   1.000000
   19        5.662783   1.000000
   20        5.746928   1.000000
   21        6.485412   1.000000
   22        7.473534   0.715085
   23        7.473534   0.715085
   24        8.924555   0.000000
   25       14.493201   0.000000
   26       16.426853   0.000000
 
  0.2500000E+00  0.2500000E+00  0.2500000E+00  0.3703704E-01
    1        0.430301   1.000000
    2        3.232281   1.000000
    3        3.232281   1.000000
    4        3.232281   1.000000
    5        3.804122   1.000000
    6        3.804122   1.000000
    7        3.804122   1.000000
    8        4.395940   1.000000
    9        4.678431   1.000000
   10        4.678431   1.000000
   11        4.678431   1.000000
   12        4.813025   1.000000
   13        4.813025   1.000000
   14        5.305044   1.000000
   15        5.305044   1.000000
   16        5.305044   1.000000
   17        5.577208   1.000000
   18        5.577208   1.000000
   19        6.109484   1.000000
   20        6.109484   1.000000
   21        6.109484   1.000000
   22        8.677781   0.000000
   23        8.677781   0.000000
   24        8.677781   0.000000
   25       14.507941   0.000000
   26       14.507941   0.000000
 
  0.4166667E+00  0.2500000E+00  0.2500000E+00  0.1111111E+00
    1        1.471484   1.000000
    2        2.592021   1.000000
    3        3.337712   1.000000
    4        3.337712   1.000000
    5        4.028509   1.000000
    6        4.028509   1.000000
    7        4.125646   1.000000
    8        4.345831   1.000000
    9        4.574409   1.000000
   10        4.578225   1.000000
   11        4.578225   1.000000
   12        4.718829   1.000000
   13        4.851451   1.000000
   14        5.027592   1.000000
   15        5.139156   1.000000
   16        5.139156   1.000000
   17        5.765182   1.000000
   18        5.850198   1.000000
   19        6.032239   1.000000
   20        6.032239   1.000000
   21        6.047671   1.000000
   22        6.723047   1.000000
   23        9.608221   0.000000
   24        9.608221   0.000000
   25       12.429042   0.000000
   26       12.429043   0.000000
 
  0.4166667E+00  0.4166667E+00  0.2500000E+00  0.1111111E+00
    1        2.177013   1.000000
    2        2.835362   1.000000
    3        2.835362   1.000000
    4        3.070484   1.000000
    5        4.296323   1.000000
    6        4.396871   1.000000
    7        4.396871   1.000000
    8        4.649962   1.000000
    9        4.673876   1.000000
   10        4.704780   1.000000
   11        4.704780   1.000000
   12        4.773452   1.000000
   13        4.825695   1.000000
   14        4.901852   1.000000
   15        4.901852   1.000000
   16        4.916903   1.000000
   17        5.744068   1.000000
   18        5.960834   1.000000
   19        5.960834   1.000000
   20        5.970908   1.000000
   21        6.306119   1.000000
   22        7.463690   0.801428
   23        7.463690   0.801428
   24        8.729808   0.000000
   25       12.110839   0.000000
   26       13.596869   0.000000
 
  0.4166667E+00  0.4166667E+00  0.4166667E+00  0.3703704E-01
    1        2.415206   1.000000
    2        2.704104   1.000000
    3        2.704104   1.000000
    4        2.704104   1.000000
    5        4.534944   1.000000
    6        4.534944   1.000000
    7        4.534944   1.000000
    8        4.654210   1.000000
    9        4.654210   1.000000
   10        4.707400   1.000000
   11        4.707400   1.000000
   12        4.707400   1.000000
   13        5.383399   1.000000
   14        5.383399   1.000000
   15        5.383399   1.000000
   16        5.720837   1.000000
   17        5.992096   1.000000
   18        5.992096   1.000000
   19        6.074341   1.000000
   20        6.074341   1.000000
   21        6.074341   1.000000
   22        7.428641   0.966974
   23        7.428641   0.966974
   24        7.428641   0.966974
   25       11.838495   0.000000
   26       11.838497   0.000000
