   4   4   0   0
  0.9826000E+01  0.3400000E-09  0.3400000E-09  0.3400000E-09  0.5000000E-15
  1.000000000000000E-004
  CAR 
 unknown system                          
     21.28304582     -1.49437881  301      9.93316299      1.00000000
     -1.494  0.0000E+00  0.0000E+00
     -1.418  0.0000E+00  0.0000E+00
     -1.343  0.0000E+00  0.0000E+00
     -1.267  0.0000E+00  0.0000E+00
     -1.191  0.0000E+00  0.0000E+00
     -1.115  0.0000E+00  0.0000E+00
     -1.039  0.0000E+00  0.0000E+00
     -0.963  0.0000E+00  0.0000E+00
     -0.887  0.0000E+00  0.0000E+00
     -0.811  0.0000E+00  0.0000E+00
     -0.735  0.2816E-14  0.2138E-15
     -0.659  0.7319E-08  0.5557E-09
     -0.583  0.2153E-03  0.1635E-04
     -0.507  0.8357E-01  0.6361E-02
     -0.431  0.6797E+00  0.5797E-01
     -0.356  0.2105E+00  0.7395E-01
     -0.280  0.1662E-02  0.7407E-01
     -0.204  0.1882E-06  0.7407E-01
     -0.128  0.2474E-12  0.7407E-01
     -0.052  0.0000E+00  0.7407E-01
      0.024  0.9895E-13  0.7407E-01
      0.100  0.1324E-06  0.7407E-01
      0.176  0.2029E-02  0.7423E-01
      0.252  0.4279E+00  0.1067E+00
      0.328  0.2098E+01  0.2660E+00
      0.404  0.3969E+00  0.2962E+00
      0.480  0.1718E-02  0.2963E+00
      0.556  0.1017E-06  0.2963E+00
      0.632  0.6889E-13  0.2963E+00
      0.707  0.1625E-15  0.2963E+00
      0.783  0.1501E-08  0.2963E+00
      0.859  0.1107E-03  0.2963E+00
      0.935  0.1027E+00  0.3041E+00
      1.011  0.1747E+01  0.4367E+00
      1.087  0.1058E+01  0.5171E+00
      1.163  0.1898E-01  0.5185E+00
      1.239  0.5299E-05  0.5185E+00
      1.315  0.1765E-10  0.5185E+00
      1.391  0.5377E-12  0.5185E+00
      1.467  0.3368E-06  0.5185E+00
      1.543  0.2731E-02  0.5187E+00
      1.619  0.4420E+00  0.5523E+00
      1.694  0.2646E+01  0.7532E+00
      1.770  0.8047E+00  0.8143E+00
      1.846  0.7403E-02  0.8148E+00
      1.922  0.1051E-05  0.8148E+00
      1.998  0.1769E-11  0.8148E+00
      2.074  0.1714E-08  0.8148E+00
      2.150  0.1520E-03  0.8148E+00
      2.226  0.1682E+00  0.8276E+00
      2.302  0.3332E+01  0.1081E+01
      2.378  0.2305E+01  0.1256E+01
      2.454  0.4854E-01  0.1259E+01
      2.530  0.1622E-04  0.1259E+01
      2.606  0.5900E-05  0.1259E+01
      2.681  0.2020E-01  0.1261E+01
      2.757  0.1082E+01  0.1343E+01
      2.833  0.1727E+01  0.1474E+01
      2.909  0.9773E-01  0.1481E+01
      2.985  0.1008E-03  0.1481E+01
      3.061  0.7235E-07  0.1481E+01
      3.137  0.1370E-02  0.1482E+01
      3.213  0.3578E+00  0.1509E+01
      3.289  0.2163E+01  0.1673E+01
      3.365  0.2058E+01  0.1829E+01
      3.441  0.1412E+01  0.1936E+01
      3.517  0.1960E+01  0.2085E+01
      3.593  0.8198E+00  0.2148E+01
      3.669  0.2873E+00  0.2169E+01
      3.744  0.3707E+01  0.2451E+01
      3.820  0.2769E+01  0.2661E+01
      3.896  0.2545E+00  0.2680E+01
      3.972  0.2543E+01  0.2873E+01
      4.048  0.5024E+01  0.3255E+01
      4.124  0.3619E+01  0.3530E+01
      4.200  0.3984E+01  0.3832E+01
      4.276  0.2171E+01  0.3997E+01
      4.352  0.1960E+00  0.4012E+01
      4.428  0.7718E+01  0.4598E+01
      4.504  0.1194E+02  0.5505E+01
      4.580  0.1216E+01  0.5597E+01
      4.656  0.3406E+01  0.5855E+01
      4.731  0.4778E+01  0.6218E+01
      4.807  0.5533E+01  0.6638E+01
      4.883  0.6147E+01  0.7105E+01
      4.959  0.1199E+02  0.8016E+01
      5.035  0.6233E+01  0.8489E+01
      5.111  0.7673E+01  0.9071E+01
      5.187  0.5966E+01  0.9524E+01
      5.263  0.6124E+01  0.9989E+01
      5.339  0.7401E+01  0.1055E+02
      5.415  0.9599E+01  0.1128E+02
      5.491  0.6464E+01  0.1177E+02
      5.567  0.3468E+01  0.1203E+02
      5.643  0.4183E+01  0.1235E+02
      5.718  0.8898E+01  0.1303E+02
      5.794  0.9601E+01  0.1376E+02
      5.870  0.4443E+01  0.1409E+02
      5.946  0.7577E+01  0.1467E+02
      6.022  0.1147E+02  0.1554E+02
      6.098  0.1414E+02  0.1661E+02
      6.174  0.9880E+01  0.1736E+02
      6.250  0.3075E+01  0.1760E+02
      6.326  0.1251E+02  0.1855E+02
      6.402  0.1136E+02  0.1941E+02
      6.478  0.1366E+02  0.2045E+02
      6.554  0.1239E+02  0.2139E+02
      6.630  0.1414E+02  0.2246E+02
      6.705  0.1489E+02  0.2359E+02
      6.781  0.1333E+02  0.2460E+02
      6.857  0.3520E+01  0.2487E+02
      6.933  0.7462E+01  0.2544E+02
      7.009  0.7268E+01  0.2599E+02
      7.085  0.1100E+02  0.2682E+02
      7.161  0.8036E+01  0.2743E+02
      7.237  0.3306E+01  0.2768E+02
      7.313  0.1478E+02  0.2881E+02
      7.389  0.1480E+02  0.2993E+02
      7.465  0.1304E+02  0.3092E+02
      7.541  0.8580E+01  0.3157E+02
      7.617  0.6250E+01  0.3205E+02
      7.693  0.8508E+01  0.3269E+02
      7.768  0.9133E+01  0.3338E+02
      7.844  0.1234E+02  0.3432E+02
      7.920  0.1523E+02  0.3548E+02
      7.996  0.5319E+01  0.3588E+02
      8.072  0.8334E+01  0.3651E+02
      8.148  0.2265E+02  0.3823E+02
      8.224  0.1727E+02  0.3955E+02
      8.300  0.1203E+02  0.4046E+02
      8.376  0.1047E+02  0.4125E+02
      8.452  0.6643E+01  0.4176E+02
      8.528  0.1549E+01  0.4188E+02
      8.604  0.1563E+01  0.4200E+02
      8.680  0.7582E-01  0.4200E+02
      8.755  0.1039E+01  0.4208E+02
      8.831  0.5419E+01  0.4249E+02
      8.907  0.2284E+01  0.4266E+02
      8.983  0.8554E+00  0.4273E+02
      9.059  0.1930E+01  0.4288E+02
      9.135  0.1694E+00  0.4289E+02
      9.211  0.6120E-01  0.4289E+02
      9.287  0.1531E+01  0.4301E+02
      9.363  0.1300E+01  0.4311E+02
      9.439  0.3503E-01  0.4311E+02
      9.515  0.1172E-01  0.4311E+02
      9.591  0.8865E+00  0.4318E+02
      9.667  0.1882E+01  0.4332E+02
      9.742  0.1894E+00  0.4334E+02
      9.818  0.2208E+01  0.4350E+02
      9.894  0.4218E+01  0.4382E+02
      9.970  0.4384E+01  0.4416E+02
     10.046  0.8516E+00  0.4422E+02
     10.122  0.4013E-02  0.4422E+02
     10.198  0.2601E-06  0.4422E+02
     10.274  0.3729E-11  0.4422E+02
     10.350  0.2096E-05  0.4422E+02
     10.426  0.1452E-01  0.4422E+02
     10.502  0.1472E+01  0.4434E+02
     10.578  0.3965E+01  0.4464E+02
     10.654  0.4014E+00  0.4467E+02
     10.730  0.8201E-03  0.4467E+02
     10.805  0.2181E-07  0.4467E+02
     10.881  0.1089E-13  0.4467E+02
     10.957  0.1364E-07  0.4467E+02
     11.033  0.4744E-03  0.4467E+02
     11.109  0.2173E+00  0.4468E+02
     11.185  0.2396E+01  0.4487E+02
     11.261  0.2800E+01  0.4508E+02
     11.337  0.4382E+00  0.4511E+02
     11.413  0.1093E-01  0.4511E+02
     11.489  0.8830E+00  0.4518E+02
     11.565  0.3639E+01  0.4546E+02
     11.641  0.1300E+01  0.4555E+02
     11.717  0.2277E-01  0.4556E+02
     11.792  0.7091E-05  0.4556E+02
     11.868  0.1455E-08  0.4556E+02
     11.944  0.1344E-03  0.4556E+02
     12.020  0.1575E+00  0.4557E+02
     12.096  0.3339E+01  0.4582E+02
     12.172  0.4859E+01  0.4619E+02
     12.248  0.3214E+01  0.4643E+02
     12.324  0.1371E+00  0.4644E+02
     12.400  0.1039E-03  0.4644E+02
     12.476  0.9756E-09  0.4644E+02
     12.552  0.0000E+00  0.4644E+02
     12.628  0.0000E+00  0.4644E+02
     12.704  0.0000E+00  0.4644E+02
     12.779  0.4812E-10  0.4644E+02
     12.855  0.1315E-04  0.4644E+02
     12.931  0.4302E-01  0.4645E+02
     13.007  0.2211E+01  0.4662E+02
     13.083  0.3414E+01  0.4687E+02
     13.159  0.1858E+00  0.4689E+02
     13.235  0.1832E-03  0.4689E+02
     13.311  0.2264E-08  0.4689E+02
     13.387  0.0000E+00  0.4689E+02
     13.463  0.0000E+00  0.4689E+02
     13.539  0.0000E+00  0.4689E+02
     13.615  0.0000E+00  0.4689E+02
     13.691  0.5163E-12  0.4689E+02
     13.766  0.5292E-06  0.4689E+02
     13.842  0.6253E-02  0.4689E+02
     13.918  0.1036E+01  0.4697E+02
     13.994  0.4169E+01  0.4728E+02
     14.070  0.1207E+01  0.4738E+02
     14.146  0.2070E+01  0.4753E+02
     14.222  0.2909E+00  0.4756E+02
     14.298  0.8808E-03  0.4756E+02
     14.374  0.3556E-07  0.4756E+02
     14.450  0.1625E-13  0.4756E+02
     14.526  0.0000E+00  0.4756E+02
     14.602  0.0000E+00  0.4756E+02
     14.678  0.0000E+00  0.4756E+02
     14.754  0.8546E-13  0.4756E+02
     14.829  0.1440E-06  0.4756E+02
     14.905  0.2763E-02  0.4756E+02
     14.981  0.7183E+00  0.4761E+02
     15.057  0.4192E+01  0.4793E+02
     15.133  0.1437E+01  0.4804E+02
     15.209  0.1323E+01  0.4814E+02
     15.285  0.1328E+00  0.4815E+02
     15.361  0.3542E+00  0.4818E+02
     15.437  0.2092E+01  0.4833E+02
     15.513  0.4766E+00  0.4837E+02
     15.589  0.1244E-01  0.4837E+02
     15.665  0.1257E+01  0.4847E+02
     15.741  0.4081E+01  0.4878E+02
     15.816  0.5047E+00  0.4881E+02
     15.892  0.1309E-02  0.4881E+02
     15.968  0.4483E-07  0.4881E+02
     16.044  0.1844E-08  0.4881E+02
     16.120  0.1596E-03  0.4881E+02
     16.196  0.1727E+00  0.4883E+02
     16.272  0.3354E+01  0.4908E+02
     16.348  0.2280E+01  0.4926E+02
     16.424  0.4704E-01  0.4926E+02
     16.500  0.1536E-04  0.4926E+02
     16.576  0.6014E-10  0.4926E+02
     16.652  0.7403E-08  0.4926E+02
     16.728  0.3183E-03  0.4926E+02
     16.803  0.1769E+00  0.4927E+02
     16.879  0.2009E+01  0.4943E+02
     16.955  0.2354E+01  0.4960E+02
     17.031  0.1281E+01  0.4970E+02
     17.107  0.3274E-01  0.4970E+02
     17.183  0.1371E-04  0.4970E+02
     17.259  0.9224E-06  0.4970E+02
     17.335  0.8810E-02  0.4970E+02
     17.411  0.1199E+01  0.4980E+02
     17.487  0.4107E+01  0.5011E+02
     17.563  0.5373E+00  0.5015E+02
     17.639  0.1491E-02  0.5015E+02
     17.715  0.3962E-02  0.5015E+02
     17.791  0.6598E+00  0.5020E+02
     17.866  0.3316E+01  0.5045E+02
     17.942  0.8899E+00  0.5052E+02
     18.018  0.8988E-02  0.5052E+02
     18.094  0.1692E-05  0.5052E+02
     18.170  0.1890E-07  0.5052E+02
     18.246  0.7469E-03  0.5052E+02
     18.322  0.3832E+00  0.5055E+02
     18.398  0.3938E+01  0.5085E+02
     18.474  0.1517E+01  0.5096E+02
     18.550  0.1564E-01  0.5096E+02
     18.626  0.2371E-05  0.5096E+02
     18.702  0.4207E-11  0.5096E+02
     18.778  0.0000E+00  0.5096E+02
     18.853  0.0000E+00  0.5096E+02
     18.929  0.0000E+00  0.5096E+02
     19.005  0.0000E+00  0.5096E+02
     19.081  0.7918E-13  0.5096E+02
     19.157  0.1007E-06  0.5096E+02
     19.233  0.1469E-02  0.5096E+02
     19.309  0.2960E+00  0.5099E+02
     19.385  0.1414E+01  0.5109E+02
     19.461  0.1798E+01  0.5123E+02
     19.537  0.3921E+01  0.5153E+02
     19.613  0.3727E+00  0.5156E+02
     19.689  0.7077E-03  0.5156E+02
     19.765  0.1030E-06  0.5156E+02
     19.840  0.1541E-02  0.5156E+02
     19.916  0.3776E+00  0.5158E+02
     19.992  0.2097E+01  0.5174E+02
     20.068  0.4488E+00  0.5178E+02
     20.144  0.7244E-02  0.5178E+02
     20.220  0.6314E+00  0.5183E+02
     20.296  0.2039E+01  0.5198E+02
     20.372  0.2507E+00  0.5200E+02
     20.448  0.6458E-03  0.5200E+02
     20.524  0.2196E-07  0.5200E+02
     20.600  0.8449E-14  0.5200E+02
     20.676  0.0000E+00  0.5200E+02
     20.752  0.0000E+00  0.5200E+02
     20.827  0.0000E+00  0.5200E+02
     20.903  0.0000E+00  0.5200E+02
     20.979  0.0000E+00  0.5200E+02
     21.055  0.0000E+00  0.5200E+02
     21.131  0.0000E+00  0.5200E+02
     21.207  0.0000E+00  0.5200E+02
     21.283  0.0000E+00  0.5200E+02
