    4    4    1    1
  0.9826000E+01  0.3400000E-09  0.3400000E-09  0.3400000E-09  0.5000000E-15
  1.000000000000000E-004
  CAR 
 unknown system                          
     44     10     26
 
  0.8333333E-01  0.8333333E-01  0.8333333E-01  0.3703704E-01
    1       -0.459041   1.000000
    2        4.091402   1.000000
    3        4.091402   1.000000
    4        4.091402   1.000000
    5        4.661072   1.000000
    6        4.661072   1.000000
    7        4.661072   1.000000
    8        6.346391   1.000000
    9        6.480915   1.000000
   10        6.480915   1.000000
   11        7.491687   1.000000
   12        7.491687   1.000000
   13        8.009629   1.000000
   14        8.009629   1.000000
   15        8.009629   1.000000
   16        8.130682   1.000000
   17        8.130682   1.000000
   18        8.130682   1.000000
   19        8.397827   1.000000
   20        8.397827   1.000000
   21        8.397827   1.000000
   22       11.509991   0.000000
   23       11.509991   0.000000
   24       11.509991   0.000000
   25       19.345278   0.000000
   26       19.345278   0.000000
 
  0.2500000E+00  0.8333333E-01  0.8333333E-01  0.1111111E+00
    1        0.289010   1.000000
    2        4.033507   1.000000
    3        4.443295   1.000000
    4        4.443295   1.000000
    5        4.877681   1.000000
    6        4.901013   1.000000
    7        4.901013   1.000000
    8        6.121647   1.000000
    9        6.644353   1.000000
   10        6.652012   1.000000
   11        7.061345   1.000000
   12        7.061345   1.000000
   13        7.296636   1.000000
   14        7.473674   1.000000
   15        7.607886   1.000000
   16        7.862368   1.000000
   17        7.872347   1.000000
   18        7.872347   1.000000
   19        8.257055   1.000000
   20        8.371332   1.000000
   21        8.371332   1.000000
   22        9.283029   1.000000
   23       13.017578   0.000000
   24       13.017578   0.000000
   25       19.482245   0.000000
   26       19.483550   0.000000
 
  0.4166667E+00  0.8333333E-01  0.8333333E-01  0.1111111E+00
    1        1.671052   1.000000
    2        3.254025   1.000000
    3        4.901720   1.000000
    4        4.901720   1.000000
    5        5.259218   1.000000
    6        5.360916   1.000000
    7        5.360916   1.000000
    8        5.715472   1.000000
    9        6.107411   1.000000
   10        6.107411   1.000000
   11        6.752662   1.000000
   12        6.769020   1.000000
   13        6.983473   1.000000
   14        7.288307   1.000000
   15        7.424241   1.000000
   16        7.509546   1.000000
   17        7.509546   1.000000
   18        7.809453   1.000000
   19        7.914128   1.000000
   20        8.045586   1.000000
   21        8.360969   1.000000
   22        8.360969   1.000000
   23       15.022278   0.000000
   24       15.022277   0.000000
   25       17.439847   0.000000
   26       17.439847   0.000000
 
  0.2500000E+00  0.2500000E+00  0.8333333E-01  0.1111111E+00
    1        0.999221   1.000000
    2        4.433734   1.000000
    3        4.433734   1.000000
    4        4.728069   1.000000
    5        5.059234   1.000000
    6        5.085848   1.000000
    7        5.085848   1.000000
    8        6.036462   1.000000
    9        6.596566   1.000000
   10        6.596566   1.000000
   11        6.639949   1.000000
   12        6.684646   1.000000
   13        6.716536   1.000000
   14        7.296250   1.000000
   15        7.610306   1.000000
   16        7.682304   1.000000
   17        7.682304   1.000000
   18        7.717762   1.000000
   19        8.192770   1.000000
   20        8.192770   1.000000
   21        8.223964   1.000000
   22       10.525137   0.000000
   23       10.525137   0.000000
   24       14.100749   0.000000
   25       16.858296   0.000000
   26       20.247708   0.000000
 
  0.4166667E+00  0.2500000E+00  0.8333333E-01  0.2222222E+00
    1        2.293083   1.000000
    2        3.741429   1.000000
    3        4.989944   1.000000
    4        5.142842   1.000000
    5        5.255280   1.000000
    6        5.412263   1.000000
    7        5.422271   1.000000
    8        5.769679   1.000000
    9        5.902907   1.000000
   10        6.113276   1.000000
   11        6.314314   1.000000
   12        6.528448   1.000000
   13        6.929738   1.000000
   14        7.282643   1.000000
   15        7.349788   1.000000
   16        7.383810   1.000000
   17        7.409123   1.000000
   18        7.846904   1.000000
   19        8.102658   1.000000
   20        8.105717   1.000000
   21        8.115857   1.000000
   22        8.819361   1.000000
   23       12.088392   0.000000
   24       13.950982   0.000000
   25       16.262832   0.000000
   26       18.375350   0.000000
 
  0.4166667E+00  0.4166667E+00  0.8333333E-01  0.1111111E+00
    1        3.358959   1.000000
    2        4.435964   1.000000
    3        4.435964   1.000000
    4        4.914490   1.000000
    5        5.645575   1.000000
    6        5.704914   1.000000
    7        5.704914   1.000000
    8        5.801955   1.000000
    9        5.980849   1.000000
   10        5.980849   1.000000
   11        6.015914   1.000000
   12        6.334926   1.000000
   13        6.902511   1.000000
   14        7.106726   1.000000
   15        7.110870   1.000000
   16        7.110870   1.000000
   17        7.392848   1.000000
   18        7.725977   1.000000
   19        7.725977   1.000000
   20        7.838874   1.000000
   21        8.775251   1.000000
   22        9.933022   0.501588
   23        9.933022   0.501587
   24       11.554897   0.000000
   25       17.821003   0.000000
   26       19.956300   0.000000
 
  0.2500000E+00  0.2500000E+00  0.2500000E+00  0.3703704E-01
    1        1.642418   1.000000
    2        4.612566   1.000000
    3        4.612566   1.000000
    4        4.612566   1.000000
    5        5.288528   1.000000
    6        5.288528   1.000000
    7        5.288528   1.000000
    8        6.068153   1.000000
    9        6.434575   1.000000
   10        6.434575   1.000000
   11        6.434575   1.000000
   12        6.622821   1.000000
   13        6.622821   1.000000
   14        7.257728   1.000000
   15        7.257728   1.000000
   16        7.257728   1.000000
   17        7.619073   1.000000
   18        7.619073   1.000000
   19        8.316992   1.000000
   20        8.316992   1.000000
   21        8.316992   1.000000
   22       11.224065   0.000000
   23       11.224065   0.000000
   24       11.224065   0.000000
   25       17.849057   0.000000
   26       17.849057   0.000000
 
  0.4166667E+00  0.2500000E+00  0.2500000E+00  0.1111111E+00
    1        2.768536   1.000000
    2        3.951125   1.000000
    3        4.757126   1.000000
    4        4.757126   1.000000
    5        5.560330   1.000000
    6        5.560330   1.000000
    7        5.704463   1.000000
    8        5.997774   1.000000
    9        6.292466   1.000000
   10        6.292466   1.000000
   11        6.309625   1.000000
   12        6.496185   1.000000
   13        6.671463   1.000000
   14        6.899668   1.000000
   15        7.039362   1.000000
   16        7.039362   1.000000
   17        7.853050   1.000000
   18        7.977015   1.000000
   19        8.213303   1.000000
   20        8.213303   1.000000
   21        8.236853   1.000000
   22        9.003576   1.000000
   23       12.177733   0.000000
   24       12.177733   0.000000
   25       15.692348   0.000000
   26       15.692348   0.000000
 
  0.4166667E+00  0.4166667E+00  0.2500000E+00  0.1111111E+00
    1        3.496363   1.000000
    2        4.188929   1.000000
    3        4.188929   1.000000
    4        4.441572   1.000000
    5        5.916856   1.000000
    6        6.049216   1.000000
    7        6.049216   1.000000
    8        6.385815   1.000000
    9        6.408944   1.000000
   10        6.445534   1.000000
   11        6.445534   1.000000
   12        6.567522   1.000000
   13        6.582914   1.000000
   14        6.730323   1.000000
   15        6.730323   1.000000
   16        6.751521   1.000000
   17        7.834488   1.000000
   18        8.116948   1.000000
   19        8.116948   1.000000
   20        8.131624   1.000000
   21        8.532705   1.000000
   22        9.828855   0.998412
   23        9.828855   0.998412
   24       11.160315   0.000000
   25       15.402215   0.000000
   26       16.950514   0.000000
 
  0.4166667E+00  0.4166667E+00  0.4166667E+00  0.3703704E-01
    1        3.702477   1.000000
    2        4.006826   1.000000
    3        4.006826   1.000000
    4        4.006826   1.000000
    5        6.250012   1.000000
    6        6.250012   1.000000
    7        6.250012   1.000000
    8        6.415546   1.000000
    9        6.415546   1.000000
   10        6.483514   1.000000
   11        6.483514   1.000000
   12        6.483514   1.000000
   13        7.258507   1.000000
   14        7.258507   1.000000
   15        7.258507   1.000000
   16        7.548425   1.000000
   17        8.161964   1.000000
   18        8.161964   1.000000
   19        8.269684   1.000000
   20        8.269684   1.000000
   21        8.269684   1.000000
   22        9.608477   1.000000
   23        9.608477   1.000000
   24        9.608477   1.000000
   25       15.156221   0.000000
   26       15.156221   0.000000
