   4   4   0   0
  0.1371800E+02  0.3800000E-09  0.3800000E-09  0.3800000E-09  0.5000000E-15
  1.000000000000000E-004
  CAR 
 unknown system                          
     16.90860294     -2.45937803  301      7.19027284      1.00000000
     -2.459  0.0000E+00  0.0000E+00
     -2.395  0.0000E+00  0.0000E+00
     -2.330  0.0000E+00  0.0000E+00
     -2.266  0.0000E+00  0.0000E+00
     -2.201  0.0000E+00  0.0000E+00
     -2.137  0.0000E+00  0.0000E+00
     -2.072  0.0000E+00  0.0000E+00
     -2.007  0.0000E+00  0.0000E+00
     -1.943  0.0000E+00  0.0000E+00
     -1.878  0.0000E+00  0.0000E+00
     -1.814  0.1798E-12  0.1161E-13
     -1.749  0.8483E-08  0.5477E-09
     -1.685  0.1610E-04  0.1040E-05
     -1.620  0.1391E-02  0.9083E-04
     -1.556  0.7160E-02  0.5531E-03
     -1.491  0.2833E-02  0.7360E-03
     -1.426  0.7318E-04  0.7407E-03
     -1.362  0.9111E-07  0.7407E-03
     -1.297  0.4672E-11  0.7407E-03
     -1.233  0.1019E-16  0.7407E-03
     -1.168  0.1388E-12  0.7407E-03
     -1.104  0.9302E-08  0.7407E-03
     -1.039  0.2488E-04  0.7423E-03
     -0.974  0.2971E-02  0.9341E-03
     -0.910  0.2040E-01  0.2251E-02
     -0.845  0.1065E-01  0.2939E-02
     -0.781  0.3756E-03  0.2963E-02
     -0.716  0.6554E-06  0.2963E-02
     -0.652  0.4763E-10  0.2963E-02
     -0.587  0.1452E-15  0.2963E-02
     -0.523  0.6947E-11  0.2963E-02
     -0.458  0.1648E-06  0.2963E-02
     -0.393  0.1600E-03  0.2973E-02
     -0.329  0.7389E-02  0.3450E-02
     -0.264  0.2183E-01  0.4860E-02
     -0.200  0.4974E-02  0.5181E-02
     -0.135  0.6893E-04  0.5185E-02
     -0.071  0.4400E-07  0.5185E-02
     -0.006  0.1135E-11  0.5185E-02
      0.058  0.4841E-11  0.5185E-02
      0.123  0.1026E-06  0.5185E-02
      0.188  0.1021E-03  0.5192E-02
      0.252  0.6051E-02  0.5582E-02
      0.317  0.2786E-01  0.7381E-02
      0.381  0.1154E-01  0.8126E-02
      0.446  0.3494E-03  0.8148E-02
      0.510  0.5469E-06  0.8148E-02
      0.575  0.3631E-10  0.8148E-02
      0.639  0.3736E-10  0.8148E-02
      0.704  0.6720E-06  0.8148E-02
      0.769  0.4990E-03  0.8180E-02
      0.833  0.1796E-01  0.9340E-02
      0.898  0.4256E-01  0.1209E-01
      0.962  0.7735E-02  0.1259E-01
      1.027  0.8307E-04  0.1259E-01
      1.091  0.4046E-07  0.1259E-01
      1.156  0.4310E-06  0.1259E-01
      1.221  0.2908E-03  0.1261E-01
      1.285  0.9586E-02  0.1323E-01
      1.350  0.2099E-01  0.1459E-01
      1.414  0.3517E-02  0.1481E-01
      1.479  0.3446E-04  0.1481E-01
      1.543  0.1522E-07  0.1481E-01
      1.608  0.4940E-07  0.1481E-01
      1.672  0.7453E-04  0.1482E-01
      1.737  0.5368E-02  0.1517E-01
      1.802  0.3021E-01  0.1712E-01
      1.866  0.2870E-01  0.1897E-01
      1.931  0.4942E-02  0.1929E-01
      1.995  0.1207E-01  0.2007E-01
      2.060  0.1949E-01  0.2133E-01
      2.124  0.3223E-02  0.2153E-01
      2.189  0.2277E-01  0.2300E-01
      2.253  0.4586E-01  0.2597E-01
      2.318  0.1058E-01  0.2665E-01
      2.383  0.5952E-02  0.2703E-01
      2.447  0.2220E-01  0.2847E-01
      2.512  0.1579E-01  0.2949E-01
      2.576  0.3232E-01  0.3157E-01
      2.641  0.4571E-01  0.3452E-01
      2.705  0.6373E-01  0.3864E-01
      2.770  0.2412E-01  0.4019E-01
      2.835  0.3988E-01  0.4277E-01
      2.899  0.6509E-01  0.4697E-01
      2.964  0.8281E-01  0.5232E-01
      3.028  0.5388E-01  0.5580E-01
      3.093  0.3313E-01  0.5794E-01
      3.157  0.6644E-01  0.6222E-01
      3.222  0.6653E-01  0.6652E-01
      3.286  0.6565E-01  0.7076E-01
      3.351  0.1338E+00  0.7940E-01
      3.416  0.9593E-01  0.8559E-01
      3.480  0.1047E+00  0.9235E-01
      3.545  0.5763E-01  0.9607E-01
      3.609  0.8373E-01  0.1015E+00
      3.674  0.1212E+00  0.1093E+00
      3.738  0.1090E+00  0.1163E+00
      3.803  0.3573E-01  0.1186E+00
      3.867  0.6027E-01  0.1225E+00
      3.932  0.1247E+00  0.1306E+00
      3.997  0.1225E+00  0.1385E+00
      4.061  0.7301E-01  0.1432E+00
      4.126  0.1152E+00  0.1506E+00
      4.190  0.1731E+00  0.1618E+00
      4.255  0.1604E+00  0.1722E+00
      4.319  0.6972E-01  0.1767E+00
      4.384  0.1516E+00  0.1865E+00
      4.449  0.1523E+00  0.1963E+00
      4.513  0.1930E+00  0.2088E+00
      4.578  0.1782E+00  0.2203E+00
      4.642  0.2089E+00  0.2337E+00
      4.707  0.1751E+00  0.2451E+00
      4.771  0.7277E-01  0.2497E+00
      4.836  0.9961E-01  0.2562E+00
      4.900  0.9589E-01  0.2624E+00
      4.965  0.1380E+00  0.2713E+00
      5.030  0.7274E-01  0.2760E+00
      5.094  0.1412E+00  0.2851E+00
      5.159  0.2123E+00  0.2988E+00
      5.223  0.1706E+00  0.3098E+00
      5.288  0.1068E+00  0.3167E+00
      5.352  0.9787E-01  0.3230E+00
      5.417  0.1263E+00  0.3312E+00
      5.481  0.1509E+00  0.3409E+00
      5.546  0.1943E+00  0.3535E+00
      5.611  0.9133E-01  0.3594E+00
      5.675  0.1771E+00  0.3708E+00
      5.740  0.2805E+00  0.3889E+00
      5.804  0.2017E+00  0.4019E+00
      5.869  0.1392E+00  0.4109E+00
      5.933  0.9608E-01  0.4171E+00
      5.998  0.1717E-01  0.4182E+00
      6.063  0.2200E-01  0.4197E+00
      6.127  0.6098E-02  0.4200E+00
      6.192  0.1767E-01  0.4212E+00
      6.256  0.5487E-01  0.4247E+00
      6.321  0.2866E-01  0.4266E+00
      6.385  0.4199E-02  0.4268E+00
      6.450  0.2019E-01  0.4282E+00
      6.514  0.1100E-01  0.4289E+00
      6.579  0.4074E-03  0.4289E+00
      6.644  0.3636E-03  0.4289E+00
      6.708  0.1050E-01  0.4296E+00
      6.773  0.2049E-01  0.4309E+00
      6.837  0.3042E-02  0.4311E+00
      6.902  0.2603E-04  0.4311E+00
      6.966  0.1467E-07  0.4311E+00
      7.031  0.2460E-04  0.4311E+00
      7.095  0.5908E-02  0.4315E+00
      7.160  0.7962E-01  0.4366E+00
      7.225  0.8046E-01  0.4418E+00
      7.289  0.6065E-02  0.4422E+00
      7.354  0.2498E-04  0.4422E+00
      7.418  0.4516E-08  0.4422E+00
      7.483  0.1535E-12  0.4422E+00
      7.547  0.1001E-07  0.4422E+00
      7.612  0.3288E-04  0.4422E+00
      7.677  0.4772E-02  0.4425E+00
      7.741  0.3900E-01  0.4451E+00
      7.806  0.2401E-01  0.4466E+00
      7.870  0.1018E-02  0.4467E+00
      7.935  0.2173E-05  0.4467E+00
      7.999  0.1945E-09  0.4467E+00
      8.064  0.6802E-15  0.4467E+00
      8.128  0.4883E-11  0.4467E+00
      8.193  0.1276E-06  0.4467E+00
      8.258  0.1363E-03  0.4467E+00
      8.322  0.6973E-02  0.4471E+00
      8.387  0.2805E-01  0.4489E+00
      8.451  0.2740E-01  0.4507E+00
      8.516  0.6908E-02  0.4512E+00
      8.580  0.1377E-01  0.4520E+00
      8.645  0.1822E-01  0.4532E+00
      8.709  0.1816E-02  0.4533E+00
      8.774  0.1960E-02  0.4535E+00
      8.839  0.1859E-01  0.4547E+00
      8.903  0.1322E-01  0.4555E+00
      8.968  0.8175E-03  0.4556E+00
      9.032  0.1068E-01  0.4563E+00
      9.097  0.4383E-01  0.4591E+00
      9.161  0.1392E-01  0.4600E+00
      9.226  0.5051E-02  0.4603E+00
      9.291  0.3900E-01  0.4628E+00
      9.355  0.2401E-01  0.4644E+00
      9.420  0.1018E-02  0.4644E+00
      9.484  0.2173E-05  0.4644E+00
      9.549  0.1944E-09  0.4644E+00
      9.613  0.6726E-15  0.4644E+00
      9.678  0.0000E+00  0.4644E+00
      9.742  0.7643E-17  0.4644E+00
      9.807  0.5417E-11  0.4644E+00
      9.872  0.1663E-06  0.4644E+00
      9.936  0.2075E-03  0.4645E+00
     10.001  0.1210E-01  0.4652E+00
     10.065  0.4397E-01  0.4681E+00
     10.130  0.1234E-01  0.4689E+00
     10.194  0.2164E-03  0.4689E+00
     10.259  0.1776E-06  0.4689E+00
     10.323  0.5932E-11  0.4689E+00
     10.388  0.7643E-17  0.4689E+00
     10.453  0.0000E+00  0.4689E+00
     10.517  0.4807E-13  0.4689E+00
     10.582  0.5003E-08  0.4689E+00
     10.646  0.2059E-04  0.4689E+00
     10.711  0.3704E-02  0.4691E+00
     10.775  0.3668E-01  0.4715E+00
     10.840  0.2707E-01  0.4732E+00
     10.905  0.4964E-02  0.4736E+00
     10.969  0.2104E-01  0.4749E+00
     11.034  0.9500E-02  0.4755E+00
     11.098  0.2847E-03  0.4756E+00
     11.163  0.4163E-06  0.4756E+00
     11.227  0.2619E-08  0.4756E+00
     11.292  0.9252E-05  0.4756E+00
     11.356  0.1452E-02  0.4756E+00
     11.421  0.1273E-01  0.4765E+00
     11.486  0.8371E-02  0.4770E+00
     11.550  0.3843E-03  0.4770E+00
     11.615  0.8210E-03  0.4771E+00
     11.679  0.1844E-01  0.4783E+00
     11.744  0.5594E-01  0.4819E+00
     11.808  0.2689E-01  0.4836E+00
     11.873  0.1174E-02  0.4837E+00
     11.937  0.1822E-02  0.4838E+00
     12.002  0.2962E-01  0.4857E+00
     12.067  0.3444E-01  0.4880E+00
     12.131  0.2943E-02  0.4881E+00
     12.196  0.1359E-04  0.4881E+00
     12.260  0.2718E-08  0.4881E+00
     12.325  0.2142E-13  0.4881E+00
     12.389  0.3822E-17  0.4881E+00
     12.454  0.2542E-11  0.4881E+00
     12.519  0.9561E-07  0.4881E+00
     12.583  0.1455E-03  0.4882E+00
     12.648  0.1021E-01  0.4888E+00
     12.712  0.4373E-01  0.4916E+00
     12.777  0.1445E-01  0.4926E+00
     12.841  0.3046E-03  0.4926E+00
     12.906  0.3046E-06  0.4926E+00
     12.970  0.1115E-08  0.4926E+00
     13.035  0.5890E-05  0.4926E+00
     13.100  0.1358E-02  0.4927E+00
     13.164  0.1683E-01  0.4938E+00
     13.229  0.1720E-01  0.4949E+00
     13.293  0.1961E-01  0.4961E+00
     13.358  0.1318E-01  0.4970E+00
     13.422  0.6530E-03  0.4970E+00
     13.487  0.1652E-05  0.4970E+00
     13.551  0.1765E-09  0.4970E+00
     13.616  0.6573E-09  0.4970E+00
     13.681  0.5103E-05  0.4970E+00
     13.745  0.1684E-02  0.4971E+00
     13.810  0.2885E-01  0.4990E+00
     13.874  0.3513E-01  0.5013E+00
     13.939  0.3170E-02  0.5015E+00
     14.003  0.2563E-02  0.5016E+00
     14.068  0.2852E-01  0.5035E+00
     14.133  0.2467E-01  0.5051E+00
     14.197  0.1613E-02  0.5052E+00
     14.262  0.5930E-05  0.5052E+00
     14.326  0.9979E-09  0.5052E+00
     14.391  0.1638E-08  0.5052E+00
     14.455  0.9601E-05  0.5052E+00
     14.520  0.2420E-02  0.5053E+00
     14.584  0.3248E-01  0.5074E+00
     14.649  0.3168E-01  0.5095E+00
     14.714  0.2235E-02  0.5096E+00
     14.778  0.8346E-05  0.5096E+00
     14.843  0.1337E-08  0.5096E+00
     14.907  0.8407E-14  0.5096E+00
     14.972  0.3033E-13  0.5096E+00
     15.036  0.2694E-08  0.5096E+00
     15.101  0.9492E-05  0.5096E+00
     15.165  0.1473E-02  0.5097E+00
     15.230  0.1277E-01  0.5105E+00
     15.295  0.8316E-02  0.5111E+00
     15.359  0.3753E-03  0.5111E+00
     15.424  0.5587E-05  0.5111E+00
     15.488  0.1611E-02  0.5112E+00
     15.553  0.2841E-01  0.5130E+00
     15.617  0.3552E-01  0.5153E+00
     15.682  0.3283E-02  0.5156E+00
     15.747  0.1654E-04  0.5156E+00
     15.811  0.2845E-06  0.5156E+00
     15.876  0.2236E-03  0.5156E+00
     15.940  0.8783E-02  0.5161E+00
     16.005  0.2996E-01  0.5181E+00
     16.069  0.2561E-01  0.5197E+00
     16.134  0.4220E-02  0.5200E+00
     16.198  0.4832E-04  0.5200E+00
     16.263  0.2545E-07  0.5200E+00
     16.328  0.5395E-12  0.5200E+00
     16.392  0.0000E+00  0.5200E+00
     16.457  0.0000E+00  0.5200E+00
     16.521  0.0000E+00  0.5200E+00
     16.586  0.0000E+00  0.5200E+00
     16.650  0.0000E+00  0.5200E+00
     16.715  0.0000E+00  0.5200E+00
     16.779  0.0000E+00  0.5200E+00
     16.844  0.0000E+00  0.5200E+00
     16.909  0.0000E+00  0.5200E+00
