    4    4  100    1
  0.1371800E+02  0.3800000E-09  0.3800000E-09  0.3800000E-09  0.5000000E-15
  1.000000000000000E-004
  CAR 
 unknown system                          
     44     10     26
 
  0.8333333E-01  0.8333333E-01  0.8333333E-01  0.3703704E-01
    1       -1.579015   1.000000
    2        2.697051   1.000000
    3        2.697051   1.000000
    4        2.697051   1.000000
    5        3.132845   1.000000
    6        3.132845   1.000000
    7        3.132845   1.000000
    8        4.379896   1.000000
    9        4.476342   1.000000
   10        4.476342   1.000000
   11        5.225227   1.000000
   12        5.225227   1.000000
   13        5.632969   1.000000
   14        5.632969   1.000000
   15        5.632969   1.000000
   16        5.699096   1.000000
   17        5.699096   1.000000
   18        5.699096   1.000000
   19        5.894389   1.000000
   20        5.894389   1.000000
   21        5.894389   1.000000
   22        8.829936   0.000000
   23        8.829936   0.000000
   24        8.829936   0.000000
   25       15.219132   0.000000
   26       15.219132   0.000000
 
  0.2500000E+00  0.8333333E-01  0.8333333E-01  0.1111111E+00
    1       -0.926441   1.000000
    2        2.594091   1.000000
    3        2.973782   1.000000
    4        2.973782   1.000000
    5        3.295129   1.000000
    6        3.310353   1.000000
    7        3.310353   1.000000
    8        4.216854   1.000000
    9        4.600794   1.000000
   10        4.605936   1.000000
   11        4.937737   1.000000
   12        4.937737   1.000000
   13        5.084285   1.000000
   14        5.239837   1.000000
   15        5.311706   1.000000
   16        5.502959   1.000000
   17        5.512929   1.000000
   18        5.512929   1.000000
   19        5.790188   1.000000
   20        5.875065   1.000000
   21        5.875065   1.000000
   22        6.725098   1.000000
   23       10.033215   0.000000
   24       10.033215   0.000000
   25       15.558580   0.000000
   26       15.558473   0.000000
 
  0.4166667E+00  0.8333333E-01  0.8333333E-01  0.1111111E+00
    1        0.298603   1.000000
    2        1.773359   1.000000
    3        3.335504   1.000000
    4        3.335504   1.000000
    5        3.581461   1.000000
    6        3.653705   1.000000
    7        3.653705   1.000000
    8        3.919184   1.000000
    9        4.218028   1.000000
   10        4.218028   1.000000
   11        4.684894   1.000000
   12        4.697566   1.000000
   13        4.853497   1.000000
   14        5.079668   1.000000
   15        5.180593   1.000000
   16        5.247638   1.000000
   17        5.247638   1.000000
   18        5.460894   1.000000
   19        5.554649   1.000000
   20        5.633963   1.000000
   21        5.867653   1.000000
   22        5.867653   1.000000
   23       11.733313   0.000000
   24       11.733313   0.000000
   25       13.814743   0.000000
   26       13.814743   0.000000
 
  0.2500000E+00  0.2500000E+00  0.8333333E-01  0.1111111E+00
    1       -0.301517   1.000000
    2        2.919942   1.000000
    3        2.919942   1.000000
    4        3.186332   1.000000
    5        3.434302   1.000000
    6        3.450867   1.000000
    7        3.450867   1.000000
    8        4.156834   1.000000
    9        4.575622   1.000000
   10        4.575622   1.000000
   11        4.599594   1.000000
   12        4.653408   1.000000
   13        4.655777   1.000000
   14        5.084681   1.000000
   15        5.320493   1.000000
   16        5.374786   1.000000
   17        5.374786   1.000000
   18        5.393018   1.000000
   19        5.745559   1.000000
   20        5.745559   1.000000
   21        5.766836   1.000000
   22        7.728763   0.000000
   23        7.728763   0.000000
   24       10.948931   0.000000
   25       13.284465   0.000000
   26       16.028240   0.000000
 
  0.4166667E+00  0.2500000E+00  0.8333333E-01  0.2222222E+00
    1        0.855036   1.000000
    2        2.203919   1.000000
    3        3.365225   1.000000
    4        3.477497   1.000000
    5        3.599300   1.000000
    6        3.696455   1.000000
    7        3.708923   1.000000
    8        3.961330   1.000000
    9        4.054333   1.000000
   10        4.224562   1.000000
   11        4.362406   1.000000
   12        4.522038   1.000000
   13        4.813725   1.000000
   14        5.077961   1.000000
   15        5.130321   1.000000
   16        5.151325   1.000000
   17        5.176106   1.000000
   18        5.495508   1.000000
   19        5.679934   1.000000
   20        5.681338   1.000000
   21        5.688042   1.000000
   22        6.248231   1.000000
   23        9.067817   0.000000
   24       10.767641   0.000000
   25       12.684224   0.000000
   26       14.583810   0.000000
 
  0.4166667E+00  0.4166667E+00  0.8333333E-01  0.1111111E+00
    1        1.825617   1.000000
    2        2.826658   1.000000
    3        2.826658   1.000000
    4        3.262585   1.000000
    5        3.895669   1.000000
    6        3.921292   1.000000
    7        3.921292   1.000000
    8        3.987120   1.000000
    9        4.122446   1.000000
   10        4.122446   1.000000
   11        4.150996   1.000000
   12        4.386541   1.000000
   13        4.795797   1.000000
   14        4.950169   1.000000
   15        4.953861   1.000000
   16        4.953861   1.000000
   17        5.156636   1.000000
   18        5.403334   1.000000
   19        5.403334   1.000000
   20        5.485148   1.000000
   21        6.198442   1.000000
   22        7.161912   0.788771
   23        7.161912   0.788771
   24        8.587689   0.000000
   25       14.059641   0.000000
   26       15.963467   0.000000
 
  0.2500000E+00  0.2500000E+00  0.2500000E+00  0.3703704E-01
    1        0.275641   1.000000
    2        3.054049   1.000000
    3        3.054049   1.000000
    4        3.054049   1.000000
    5        3.615502   1.000000
    6        3.615502   1.000000
    7        3.615502   1.000000
    8        4.185067   1.000000
    9        4.455858   1.000000
   10        4.455858   1.000000
   11        4.455858   1.000000
   12        4.585351   1.000000
   13        4.585351   1.000000
   14        5.059207   1.000000
   15        5.059207   1.000000
   16        5.059207   1.000000
   17        5.321263   1.000000
   18        5.321263   1.000000
   19        5.834009   1.000000
   20        5.834009   1.000000
   21        5.834009   1.000000
   22        8.351453   0.000000
   23        8.351453   0.000000
   24        8.351453   0.000000
   25       14.071073   0.000000
   26       14.071073   0.000000
 
  0.4166667E+00  0.2500000E+00  0.2500000E+00  0.1111111E+00
    1        1.304980   1.000000
    2        2.417050   1.000000
    3        3.155583   1.000000
    4        3.155583   1.000000
    5        3.833183   1.000000
    6        3.833183   1.000000
    7        3.925794   1.000000
    8        4.137129   1.000000
    9        4.355563   1.000000
   10        4.360424   1.000000
   11        4.360424   1.000000
   12        4.495235   1.000000
   13        4.622325   1.000000
   14        4.792595   1.000000
   15        4.900160   1.000000
   16        4.900160   1.000000
   17        5.503624   1.000000
   18        5.584473   1.000000
   19        5.759252   1.000000
   20        5.759252   1.000000
   21        5.774912   1.000000
   22        6.434469   1.000000
   23        9.278201   0.000000
   24        9.278201   0.000000
   25       12.005889   0.000000
   26       12.005889   0.000000
 
  0.4166667E+00  0.4166667E+00  0.2500000E+00  0.1111111E+00
    1        2.007544   1.000000
    2        2.660743   1.000000
    3        2.660743   1.000000
    4        2.891268   1.000000
    5        4.090315   1.000000
    6        4.187176   1.000000
    7        4.187176   1.000000
    8        4.428495   1.000000
    9        4.456068   1.000000
   10        4.483627   1.000000
   11        4.483627   1.000000
   12        4.547328   1.000000
   13        4.601338   1.000000
   14        4.671765   1.000000
   15        4.671765   1.000000
   16        4.684788   1.000000
   17        5.481895   1.000000
   18        5.690496   1.000000
   19        5.690496   1.000000
   20        5.699135   1.000000
   21        6.026953   1.000000
   22        7.162921   0.780422
   23        7.162921   0.780422
   24        8.418943   0.000000
   25       11.685172   0.000000
   26       13.161614   0.000000
 
  0.4166667E+00  0.4166667E+00  0.4166667E+00  0.3703704E-01
    1        2.250267   1.000000
    2        2.534243   1.000000
    3        2.534243   1.000000
    4        2.534243   1.000000
    5        4.317953   1.000000
    6        4.317953   1.000000
    7        4.317954   1.000000
    8        4.433242   1.000000
    9        4.433242   1.000000
   10        4.484551   1.000000
   11        4.484551   1.000000
   12        4.484551   1.000000
   13        5.143305   1.000000
   14        5.143305   1.000000
   15        5.143305   1.000000
   16        5.484471   1.000000
   17        5.720807   1.000000
   18        5.720807   1.000000
   19        5.799839   1.000000
   20        5.799839   1.000000
   21        5.799839   1.000000
   22        7.151820   0.861615
   23        7.151820   0.861615
   24        7.151820   0.861615
   25       11.410347   0.000000
   26       11.410347   0.000000
