       N       E                     dE             d eps       ncg     rms          rms(c)
DAV:   1     0.281535773716E+03    0.28154E+03   -0.14393E+04   528   0.191E+03
DAV:   2     0.189734431259E+01   -0.27964E+03   -0.27439E+03   520   0.367E+02
DAV:   3    -0.174517891730E+02   -0.19349E+02   -0.18362E+02   582   0.143E+02
DAV:   4    -0.178641795923E+02   -0.41239E+00   -0.41048E+00   614   0.252E+01
DAV:   5    -0.178693264160E+02   -0.51468E-02   -0.51425E-02   660   0.236E+00    0.147E+01
RMM:   6    -0.163866968270E+02    0.14826E+01   -0.44245E+01   520   0.100E+02    0.929E+00
RMM:   7    -0.145854262551E+02    0.18013E+01   -0.83709E+00   520   0.473E+01    0.764E-01
RMM:   8    -0.145727993752E+02    0.12627E-01   -0.94706E-02   524   0.471E+00    0.687E-01
RMM:   9    -0.145649955725E+02    0.78038E-02   -0.25347E-02   529   0.212E+00    0.688E-02
RMM:  10    -0.145651849614E+02   -0.18939E-03   -0.15681E-03   523   0.250E-01    0.623E-02
RMM:  11    -0.145651661724E+02    0.18789E-04   -0.57145E-04   520   0.350E-01    0.187E-02
RMM:  12    -0.145651609970E+02    0.51754E-05   -0.41866E-05   378   0.109E-01
   1 F= -.14565161E+02 E0= -.14564352E+02  d E =-.145652E+02
       N       E                     dE             d eps       ncg     rms          rms(c)
DAV:   1    -0.507025949697E+02   -0.36137E+02   -0.51381E+02   526   0.351E+02    0.503E+01
RMM:   2    -0.267940191341E+02    0.23909E+02   -0.39036E+02   524   0.350E+02    0.221E+01
RMM:   3    -0.153003638016E+02    0.11494E+02   -0.10430E+02   523   0.154E+02    0.745E+00
RMM:   4    -0.148730966760E+02    0.42727E+00   -0.14396E+00   525   0.176E+01    0.458E-01
RMM:   5    -0.148630357289E+02    0.10061E-01   -0.19639E-01   544   0.400E+00    0.675E-01
RMM:   6    -0.148579692112E+02    0.50665E-02   -0.13151E-02   527   0.172E+00    0.137E-01
RMM:   7    -0.148581501392E+02   -0.18093E-03   -0.17430E-03   529   0.589E-01    0.237E-02
RMM:   8    -0.148581713408E+02   -0.21202E-04   -0.21100E-04   469   0.120E-01    0.300E-02
RMM:   9    -0.148581647284E+02    0.66124E-05   -0.20681E-05   317   0.611E-02
   2 F= -.14858165E+02 E0= -.14853393E+02  d E =-.293004E+00
       N       E                     dE             d eps       ncg     rms          rms(c)
DAV:   1    -0.175784544323E+02   -0.27203E+01   -0.41606E+01   520   0.132E+02    0.128E+01
RMM:   2    -0.155035237545E+02    0.20749E+01   -0.18839E+01   523   0.659E+01    0.412E+00
RMM:   3    -0.149910525430E+02    0.51247E+00   -0.19075E+00   522   0.245E+01    0.208E+00
RMM:   4    -0.149213345946E+02    0.69718E-01   -0.12329E-01   531   0.359E+00    0.572E-01
RMM:   5    -0.149161300657E+02    0.52045E-02   -0.18928E-02   522   0.221E+00    0.143E-01
RMM:   6    -0.149159453629E+02    0.18470E-03   -0.13767E-03   545   0.354E-01    0.510E-02
RMM:   7    -0.149159309666E+02    0.14396E-04   -0.26411E-04   513   0.222E-01    0.781E-03
RMM:   8    -0.149159330291E+02   -0.20625E-05   -0.32118E-05   322   0.786E-02
   3 F= -.14915933E+02 E0= -.14910448E+02  d E =-.350772E+00
       N       E                     dE             d eps       ncg     rms          rms(c)
DAV:   1    -0.149336444984E+02   -0.17714E-01   -0.24546E-01   534   0.965E+00    0.111E+00
RMM:   2    -0.149227543697E+02    0.10890E-01   -0.15917E-01   522   0.621E+00    0.530E-01
RMM:   3    -0.149163361129E+02    0.64183E-02   -0.26773E-02   521   0.285E+00    0.178E-01
RMM:   4    -0.149158919800E+02    0.44413E-03   -0.59410E-04   526   0.255E-01    0.389E-02
RMM:   5    -0.149158702488E+02    0.21731E-04   -0.76911E-05   464   0.136E-01    0.867E-03
RMM:   6    -0.149158667711E+02    0.34777E-05   -0.66190E-06   283   0.336E-02
   4 F= -.14915867E+02 E0= -.14910403E+02  d E =-.350706E+00
