 vasp.5.4.4.18Apr17-6-g9f103f2a35 (build Jan 01 2020 16:14:11) complex          
  
 executed on             LinuxIFC date 2022.03.02  19:30:57
 running on    4 total cores
 distrk:  each k-point on    4 cores,    1 groups
 distr:  one band on NCORES_PER_BAND=   2 cores,    2 groups


--------------------------------------------------------------------------------------------------------


 INCAR:
 POTCAR:    PAW_PBE Cu 22Jun2005                  
 POTCAR:    PAW_PBE Cu 22Jun2005                  
   VRHFIN =Cu: d10 p1                                                           
   LEXCH  = PE                                                                  
   EATOM  =  1390.9808 eV,  102.2342 Ry                                         
                                                                                
   TITEL  = PAW_PBE Cu 22Jun2005                                                
   LULTRA =        F    use ultrasoft PP ?                                      
   IUNSCR =        1    unscreen: 0-lin 1-nonlin 2-no                           
   RPACOR =    2.000    partial core radius                                     
   POMASS =   63.546; ZVAL   =   11.000    mass and valenz                      
   RCORE  =    2.300    outmost cutoff radius                                   
   RWIGS  =    2.200; RWIGS  =    1.164    wigner-seitz radius (au A)           
   ENMAX  =  295.446; ENMIN  =  221.585 eV                                      
   ICORE  =        3    local potential                                         
   LCOR   =        T    correct aug charges                                     
   LPAW   =        T    paw PP                                                  
   EAUG   =  586.980                                                            
   DEXC   =    0.000                                                            
   RMAX   =    2.344    core radius for proj-oper                               
   RAUG   =    1.300    factor for augmentation sphere                          
   RDEP   =    2.302    radius for radial grids                                 
   RDEPT  =    1.771    core radius for aug-charge                              
                                                                                
   Atomic configuration                                                         
    9 entries                                                                   
     n  l   j            E        occ.                                          
     1  0  0.50     -8850.2468   2.0000                                         
     2  0  0.50     -1062.3498   2.0000                                         
     2  1  1.50      -916.8226   6.0000                                         
     3  0  0.50      -114.6929   2.0000                                         
     3  1  1.50       -72.1325   6.0000                                         
     3  2  2.50        -5.0394  10.0000                                         
     4  0  0.50        -4.6097   1.0000                                         
     4  1  0.50        -4.0817   0.0000                                         
     4  3  2.50        -1.3606   0.0000                                         
   Description                                                                  
     l       E           TYP  RCUT    TYP  RCUT                                 
     2     -5.0393973     23  2.200                                             
     2     10.8846608     23  2.200                                             
     0     -4.6097109     23  2.200                                             
     0      8.2520465     23  2.200                                             
     1     -2.7211652     23  2.200                                             
     1     21.7055443     23  2.200                                             
     3      2.7211652     23  2.300                                             
  local pseudopotential read in
  partial core-charges read in
  partial kinetic energy density read in
  atomic valenz-charges read in
  non local Contribution for L=           2  read in
    real space projection operators read in
  non local Contribution for L=           2  read in
    real space projection operators read in
  non local Contribution for L=           0  read in
    real space projection operators read in
  non local Contribution for L=           0  read in
    real space projection operators read in
  non local Contribution for L=           1  read in
    real space projection operators read in
  non local Contribution for L=           1  read in
    real space projection operators read in
    PAW grid and wavefunctions read in
 
   number of l-projection  operators is LMAX  =           6
   number of lm-projection operators is LMMAX =          18
 
  PAW_PBE Cu 22Jun2005                  :
 energy of atom  1       EATOM=-1390.9808
 kinetic energy error for atom=    0.0422 (will be added to EATOM!!)
 
 
 POSCAR: Cu                                      
  positions in cartesian coordinates
  No initial velocities read in
 exchange correlation table for  LEXCH =        8
   RHO(1)=    0.500       N(1)  =     2000
   RHO(2)=  100.500       N(2)  =     4000
 


--------------------------------------------------------------------------------------------------------


 ion  position               nearest neighbor table
   1  0.000  0.000  0.000-   2 2.69   3 2.69   4 2.69   2 2.69   3 2.69   2 2.69   4 2.69   2 2.69
                             3 2.69   4 2.69   3 2.69   4 2.69
   2  0.000  0.500  0.500-   1 2.69   3 2.69   4 2.69   1 2.69   4 2.69   1 2.69   3 2.69   1 2.69
                             3 2.69   4 2.69   4 2.69   3 2.69
   3  0.500  0.000  0.500-   1 2.69   2 2.69   4 2.69   1 2.69   4 2.69   2 2.69   4 2.69   4 2.69
                             1 2.69   2 2.69   1 2.69   2 2.69
   4  0.500  0.500  0.000-   1 2.69   2 2.69   3 2.69   2 2.69   3 2.69   1 2.69   3 2.69   3 2.69
                             1 2.69   2 2.69   2 2.69   1 2.69
 
  LATTYP: Found a simple cubic cell.
 ALAT       =     3.8000000000
  
  Lattice vectors:
  
 A1 = (   3.8000000000,   0.0000000000,   0.0000000000)
 A2 = (   0.0000000000,   3.8000000000,   0.0000000000)
 A3 = (   0.0000000000,   0.0000000000,   3.8000000000)


Analysis of symmetry for initial positions (statically):
=====================================================================
 Subroutine PRICEL returns following result:
 
  LATTYP: Found a face centered cubic cell.
 ALAT       =     3.8000000000
  
  Lattice vectors:
  
 A1 = (   1.9000000000,   1.9000000000,   0.0000000000)
 A2 = (   1.9000000000,   0.0000000000,  -1.9000000000)
 A3 = (   0.0000000000,   1.9000000000,  -1.9000000000)
 
   4 primitive cells build up your supercell.
 

 Routine SETGRP: Setting up the symmetry group for a 
 simple cubic supercell.


 Subroutine GETGRP returns: Found 48 space group operations
 (whereof 48 operations were pure point group operations)
 out of a pool of 48 trial point group operations.


The static configuration has the point symmetry O_h .


Analysis of symmetry for dynamics (positions and initial velocities):
=====================================================================
 Subroutine PRICEL returns following result:
 
  LATTYP: Found a face centered cubic cell.
 ALAT       =     3.8000000000
  
  Lattice vectors:
  
 A1 = (   1.9000000000,   1.9000000000,   0.0000000000)
 A2 = (   1.9000000000,   0.0000000000,  -1.9000000000)
 A3 = (   0.0000000000,   1.9000000000,  -1.9000000000)
 
   4 primitive cells build up your supercell.
 

 Routine SETGRP: Setting up the symmetry group for a 
 simple cubic supercell.


 Subroutine GETGRP returns: Found 48 space group operations
 (whereof 48 operations were pure point group operations)
 out of a pool of 48 trial point group operations.


The dynamic configuration has the point symmetry O_h .


 Subroutine INISYM returns: Found 48 space group operations
 (whereof 48 operations are pure point group operations),
 and found     4 'primitive' translations

 
 
 KPOINTS: KPOINTS created by Atomic Simulation Env

Automatic generation of k-mesh.
Space group operators:
 irot       det(A)        alpha          n_x          n_y          n_z        tau_x        tau_y        tau_z
    1     1.000000     0.000001     1.000000     0.000000     0.000000     0.000000     0.000000     0.000000
    2    -1.000000     0.000001     1.000000     0.000000     0.000000     0.000000     0.000000     0.000000
    3     1.000000   120.000000    -0.577350    -0.577350    -0.577350     0.000000     0.000000     0.000000
    4    -1.000000   120.000000    -0.577350    -0.577350    -0.577350     0.000000     0.000000     0.000000
    5     1.000000   120.000000     0.577350     0.577350     0.577350     0.000000     0.000000     0.000000
    6    -1.000000   120.000000     0.577350     0.577350     0.577350     0.000000     0.000000     0.000000
    7     1.000000    90.000000     0.000000     0.000000    -1.000000     0.000000     0.000000     0.000000
    8    -1.000000    90.000000     0.000000     0.000000    -1.000000     0.000000     0.000000     0.000000
    9     1.000000   180.000000     0.000000     0.707107     0.707107     0.000000     0.000000     0.000000
   10    -1.000000   180.000000     0.000000     0.707107     0.707107     0.000000     0.000000     0.000000
   11     1.000000    90.000000     0.000000     1.000000     0.000000     0.000000     0.000000     0.000000
   12    -1.000000    90.000000     0.000000     1.000000     0.000000     0.000000     0.000000     0.000000
   13     1.000000   180.000000     0.000000     0.000000     1.000000     0.000000     0.000000     0.000000
   14    -1.000000   180.000000     0.000000     0.000000     1.000000     0.000000     0.000000     0.000000
   15     1.000000   120.000000    -0.577350     0.577350     0.577350     0.000000     0.000000     0.000000
   16    -1.000000   120.000000    -0.577350     0.577350     0.577350     0.000000     0.000000     0.000000
   17     1.000000   120.000000    -0.577350     0.577350    -0.577350     0.000000     0.000000     0.000000
   18    -1.000000   120.000000    -0.577350     0.577350    -0.577350     0.000000     0.000000     0.000000
   19     1.000000    90.000000     0.000000     0.000000     1.000000     0.000000     0.000000     0.000000
   20    -1.000000    90.000000     0.000000     0.000000     1.000000     0.000000     0.000000     0.000000
   21     1.000000    90.000000    -1.000000     0.000000     0.000000     0.000000     0.000000     0.000000
   22    -1.000000    90.000000    -1.000000     0.000000     0.000000     0.000000     0.000000     0.000000
   23     1.000000   180.000000     0.707107     0.000000     0.707107     0.000000     0.000000     0.000000
   24    -1.000000   180.000000     0.707107     0.000000     0.707107     0.000000     0.000000     0.000000
   25     1.000000   120.000000     0.577350    -0.577350     0.577350     0.000000     0.000000     0.000000
   26    -1.000000   120.000000     0.577350    -0.577350     0.577350     0.000000     0.000000     0.000000
   27     1.000000   120.000000    -0.577350    -0.577350     0.577350     0.000000     0.000000     0.000000
   28    -1.000000   120.000000    -0.577350    -0.577350     0.577350     0.000000     0.000000     0.000000
   29     1.000000   180.000000     1.000000     0.000000     0.000000     0.000000     0.000000     0.000000
   30    -1.000000   180.000000     1.000000     0.000000     0.000000     0.000000     0.000000     0.000000
   31     1.000000    90.000000     0.000000    -1.000000     0.000000     0.000000     0.000000     0.000000
   32    -1.000000    90.000000     0.000000    -1.000000     0.000000     0.000000     0.000000     0.000000
   33     1.000000   180.000000     0.707107     0.707107     0.000000     0.000000     0.000000     0.000000
   34    -1.000000   180.000000     0.707107     0.707107     0.000000     0.000000     0.000000     0.000000
   35     1.000000    90.000000     1.000000     0.000000     0.000000     0.000000     0.000000     0.000000
   36    -1.000000    90.000000     1.000000     0.000000     0.000000     0.000000     0.000000     0.000000
   37     1.000000   120.000000     0.577350    -0.577350    -0.577350     0.000000     0.000000     0.000000
   38    -1.000000   120.000000     0.577350    -0.577350    -0.577350     0.000000     0.000000     0.000000
   39     1.000000   180.000000     0.000000     1.000000     0.000000     0.000000     0.000000     0.000000
   40    -1.000000   180.000000     0.000000     1.000000     0.000000     0.000000     0.000000     0.000000
   41     1.000000   120.000000     0.577350     0.577350    -0.577350     0.000000     0.000000     0.000000
   42    -1.000000   120.000000     0.577350     0.577350    -0.577350     0.000000     0.000000     0.000000
   43     1.000000   180.000000     0.000000    -0.707107     0.707107     0.000000     0.000000     0.000000
   44    -1.000000   180.000000     0.000000    -0.707107     0.707107     0.000000     0.000000     0.000000
   45     1.000000   180.000000     0.707107    -0.707107     0.000000     0.000000     0.000000     0.000000
   46    -1.000000   180.000000     0.707107    -0.707107     0.000000     0.000000     0.000000     0.000000
   47     1.000000   180.000000     0.707107     0.000000    -0.707107     0.000000     0.000000     0.000000
   48    -1.000000   180.000000     0.707107     0.000000    -0.707107     0.000000     0.000000     0.000000
 
 Subroutine IBZKPT returns following result:
 ===========================================
 
 Found     10 irreducible k-points:
 
 Following reciprocal coordinates:
            Coordinates               Weight
  0.083333  0.083333  0.083333      8.000000
  0.250000  0.083333  0.083333     24.000000
  0.416667  0.083333  0.083333     24.000000
  0.250000  0.250000  0.083333     24.000000
  0.416667  0.250000  0.083333     48.000000
  0.416667  0.416667  0.083333     24.000000
  0.250000  0.250000  0.250000      8.000000
  0.416667  0.250000  0.250000     24.000000
  0.416667  0.416667  0.250000     24.000000
  0.416667  0.416667  0.416667      8.000000
 
 Following cartesian coordinates:
            Coordinates               Weight
  0.021930  0.021930  0.021930      8.000000
  0.065789  0.021930  0.021930     24.000000
  0.109649  0.021930  0.021930     24.000000
  0.065789  0.065789  0.021930     24.000000
  0.109649  0.065789  0.021930     48.000000
  0.109649  0.109649  0.021930     24.000000
  0.065789  0.065789  0.065789      8.000000
  0.109649  0.065789  0.065789     24.000000
  0.109649  0.109649  0.065789     24.000000
  0.109649  0.109649  0.109649      8.000000
 


--------------------------------------------------------------------------------------------------------




 Dimension of arrays:
   k-points           NKPTS =     10   k-points in BZ     NKDIM =     10   number of bands    NBANDS=     26
   number of dos      NEDOS =    301   number of ions     NIONS =      4
   non local maximal  LDIM  =      6   non local SUM 2l+1 LMDIM =     18
   total plane-waves  NPLWV =  13824
   max r-space proj   IRMAX =      1   max aug-charges    IRDMAX=   7496
   dimension x,y,z NGX =    24 NGY =   24 NGZ =   24
   dimension x,y,z NGXF=    48 NGYF=   48 NGZF=   48
   support grid    NGXF=    48 NGYF=   48 NGZF=   48
   ions per type =               4
   NGX,Y,Z   is equivalent  to a cutoff of  10.50, 10.50, 10.50 a.u.
   NGXF,Y,Z  is equivalent  to a cutoff of  21.00, 21.00, 21.00 a.u.

 SYSTEM =  unknown system                          
 POSCAR =  Cu                                      

 Startparameter for this run:
   NWRITE =      2    write-flag & timer
   PREC   = accura    normal or accurate (medium, high low for compatibility)
   ISTART =      0    job   : 0-new  1-cont  2-samecut
   ICHARG =      2    charge: 1-file 2-atom 10-const
   ISPIN  =      1    spin polarized calculation?
   LNONCOLLINEAR =      F non collinear calculations
   LSORBIT =      F    spin-orbit coupling
   INIWAV =      1    electr: 0-lowe 1-rand  2-diag
   LASPH  =      F    aspherical Exc in radial PAW
   METAGGA=      F    non-selfconsistent MetaGGA calc.

 Electronic Relaxation 1
   ENCUT  =  300.0 eV  22.05 Ry    4.70 a.u.   5.37  5.37  5.37*2*pi/ulx,y,z
   ENINI  =  300.0     initial cutoff
   ENAUG  =  587.0 eV  augmentation charge cutoff
   NELM   =    100;   NELMIN=  4; NELMDL= -5     # of ELM steps 
   EDIFF  = 0.1E-04   stopping-criterion for ELM
   LREAL  =      F    real-space projection
   NLSPLINE    = F    spline interpolate recip. space projectors
   LCOMPAT=      F    compatible to vasp.4.4
   GGA_COMPAT  = T    GGA compatible to vasp.4.4-vasp.4.6
   LMAXPAW     = -100 max onsite density
   LMAXMIX     =    2 max onsite mixed and CHGCAR
   VOSKOWN=      0    Vosko Wilk Nusair interpolation
   ROPT   =    0.00000
 Ionic relaxation
   EDIFFG = 0.1E-03   stopping-criterion for IOM
   NSW    =    100    number of steps for IOM
   NBLOCK =      1;   KBLOCK =    100    inner block; outer block 
   IBRION =      2    ionic relax: 0-MD 1-quasi-New 2-CG
   NFREE  =      1    steps in history (QN), initial steepest desc. (CG)
   ISIF   =      3    stress and relaxation
   IWAVPR =     11    prediction:  0-non 1-charg 2-wave 3-comb
   ISYM   =      2    0-nonsym 1-usesym 2-fastsym
   LCORR  =      T    Harris-Foulkes like correction to forces

   POTIM  = 0.5000    time-step for ionic-motion
   TEIN   =    0.0    initial temperature
   TEBEG  =    0.0;   TEEND  =   0.0 temperature during run
   SMASS  =  -3.00    Nose mass-parameter (am)
   estimated Nose-frequenzy (Omega)   =  0.10E-29 period in steps =****** mass=  -0.330E-27a.u.
   SCALEE = 1.0000    scale energy and forces
   NPACO  =    256;   APACO  = 16.0  distance and # of slots for P.C.
   PSTRESS=    0.0 pullay stress

  Mass of Ions in am
   POMASS =  63.55
  Ionic Valenz
   ZVAL   =  11.00
  Atomic Wigner-Seitz radii
   RWIGS  =  -1.00
  virtual crystal weights 
   VCA    =   1.00
   NELECT =      44.0000    total number of electrons
   NUPDOWN=      -1.0000    fix difference up-down

 DOS related values:
   EMIN   =  10.00;   EMAX   =-10.00  energy-range for DOS
   EFERMI =   0.00
   ISMEAR =     0;   SIGMA  =   0.05  broadening in eV -4-tet -1-fermi 0-gaus

 Electronic relaxation 2 (details)
   IALGO  =     68    algorithm
   LDIAG  =      T    sub-space diagonalisation (order eigenvalues)
   LSUBROT=      F    optimize rotation matrix (better conditioning)
   TURBO    =      0    0=normal 1=particle mesh
   IRESTART =      0    0=no restart 2=restart with 2 vectors
   NREBOOT  =      0    no. of reboots
   NMIN     =      0    reboot dimension
   EREF     =   0.00    reference energy to select bands
   IMIX   =      4    mixing-type and parameters
     AMIX     =   0.40;   BMIX     =  1.00
     AMIX_MAG =   1.60;   BMIX_MAG =  1.00
     AMIN     =   0.10
     WC   =   100.;   INIMIX=   1;  MIXPRE=   1;  MAXMIX= -45

 Intra band minimization:
   WEIMIN = 0.0010     energy-eigenvalue tresh-hold
   EBREAK =  0.96E-07  absolut break condition
   DEPER  =   0.30     relativ break condition  

   TIME   =   0.40     timestep for ELM

  volume/ion in A,a.u.               =      13.72        92.57
  Fermi-wavevector in a.u.,A,eV,Ry     =   1.520928  2.874138 31.473316  2.313223
  Thomas-Fermi vector in A             =   2.629713
 
 Write flags
   LWAVE        =      F    write WAVECAR
   LDOWNSAMPLE  =      F    k-point downsampling of WAVECAR
   LCHARG       =      T    write CHGCAR
   LVTOT        =      F    write LOCPOT, total local potential
   LVHAR        =      F    write LOCPOT, Hartree potential only
   LELF         =      F    write electronic localiz. function (ELF)
   LORBIT       =      0    0 simple, 1 ext, 2 COOP (PROOUT), +10 PAW based schemes


 Dipole corrections
   LMONO  =      F    monopole corrections only (constant potential shift)
   LDIPOL =      F    correct potential (dipole corrections)
   IDIPOL =      0    1-x, 2-y, 3-z, 4-all directions 
   EPSILON=  1.0000000 bulk dielectric constant

 Exchange correlation treatment:
   GGA     =    PE    GGA type
   LEXCH   =     8    internal setting for exchange type
   VOSKOWN=      0    Vosko Wilk Nusair interpolation
   LHFCALC =     F    Hartree Fock is set to
   LHFONE  =     F    Hartree Fock one center treatment
   AEXX    =    0.0000 exact exchange contribution

 Linear response parameters
   LEPSILON=     F    determine dielectric tensor
   LRPA    =     F    only Hartree local field effects (RPA)
   LNABLA  =     F    use nabla operator in PAW spheres
   LVEL    =     F    velocity operator in full k-point grid
   LINTERFAST=   F  fast interpolation
   KINTER  =     0    interpolate to denser k-point grid
   CSHIFT  =0.1000    complex shift for real part using Kramers Kronig
   OMEGAMAX=  -1.0    maximum frequency
   DEG_THRESHOLD= 0.2000000E-02 threshold for treating states as degnerate
   RTIME   =   -0.100 relaxation time in fs
  (WPLASMAI=    0.000 imaginary part of plasma frequency in eV, 0.658/RTIME)
   DFIELD  = 0.0000000 0.0000000 0.0000000 field for delta impulse in time
 
 Orbital magnetization related:
   ORBITALMAG=     F  switch on orbital magnetization
   LCHIMAG   =     F  perturbation theory with respect to B field
   DQ        =  0.001000  dq finite difference perturbation B field
   LLRAUG    =     F  two centre corrections for induced B field



--------------------------------------------------------------------------------------------------------


 conjugate gradient relaxation of ions
 charge density and potential will be updated during run
 non-spin polarized calculation
 RMM-DIIS sequential band-by-band and
  variant of blocked Davidson during initial phase
 perform sub-space diagonalisation
    before iterative eigenvector-optimisation
 modified Broyden-mixing scheme, WC =      100.0
 initial mixing is a Kerker type mixing with AMIX =  0.4000 and BMIX =      1.0000
 Hartree-type preconditioning will be used
 using additional bands            4
 reciprocal scheme for non local part
 use partial core corrections
 calculate Harris-corrections to forces 
   (improved forces if not selfconsistent)
 use gradient corrections 
 use of overlap-Matrix (Vanderbilt PP)
 Gauss-broadening in eV      SIGMA  =   0.05


--------------------------------------------------------------------------------------------------------


  energy-cutoff  :      300.00
  volume of cell :       54.87
      direct lattice vectors                 reciprocal lattice vectors
     3.800000000  0.000000000  0.000000000     0.263157895  0.000000000  0.000000000
     0.000000000  3.800000000  0.000000000     0.000000000  0.263157895  0.000000000
     0.000000000  0.000000000  3.800000000     0.000000000  0.000000000  0.263157895

  length of vectors
     3.800000000  3.800000000  3.800000000     0.263157895  0.263157895  0.263157895


 
 k-points in units of 2pi/SCALE and weight: KPOINTS created by Atomic Simulation Env
   0.02192982  0.02192982  0.02192982       0.037
   0.06578947  0.02192982  0.02192982       0.111
   0.10964912  0.02192982  0.02192982       0.111
   0.06578947  0.06578947  0.02192982       0.111
   0.10964912  0.06578947  0.02192982       0.222
   0.10964912  0.10964912  0.02192982       0.111
   0.06578947  0.06578947  0.06578947       0.037
   0.10964912  0.06578947  0.06578947       0.111
   0.10964912  0.10964912  0.06578947       0.111
   0.10964912  0.10964912  0.10964912       0.037
 
 k-points in reciprocal lattice and weights: KPOINTS created by Atomic Simulation Env
   0.08333333  0.08333333  0.08333333       0.037
   0.25000000  0.08333333  0.08333333       0.111
   0.41666667  0.08333333  0.08333333       0.111
   0.25000000  0.25000000  0.08333333       0.111
   0.41666667  0.25000000  0.08333333       0.222
   0.41666667  0.41666667  0.08333333       0.111
   0.25000000  0.25000000  0.25000000       0.037
   0.41666667  0.25000000  0.25000000       0.111
   0.41666667  0.41666667  0.25000000       0.111
   0.41666667  0.41666667  0.41666667       0.037
 
 position of ions in fractional coordinates (direct lattice) 
   0.00000000  0.00000000  0.00000000
   0.00000000  0.50000000  0.50000000
   0.50000000  0.00000000  0.50000000
   0.50000000  0.50000000  0.00000000
 
 position of ions in cartesian coordinates  (Angst):
   0.00000000  0.00000000  0.00000000
   0.00000000  1.90000000  1.90000000
   1.90000000  0.00000000  1.90000000
   1.90000000  1.90000000  0.00000000
 


--------------------------------------------------------------------------------------------------------


 k-point  1 :   0.0833 0.0833 0.0833  plane waves:     655
 k-point  2 :   0.2500 0.0833 0.0833  plane waves:     660
 k-point  3 :   0.4167 0.0833 0.0833  plane waves:     644
 k-point  4 :   0.2500 0.2500 0.0833  plane waves:     651
 k-point  5 :   0.4167 0.2500 0.0833  plane waves:     645
 k-point  6 :   0.4167 0.4167 0.0833  plane waves:     648
 k-point  7 :   0.2500 0.2500 0.2500  plane waves:     654
 k-point  8 :   0.4167 0.2500 0.2500  plane waves:     648
 k-point  9 :   0.4167 0.4167 0.2500  plane waves:     645
 k-point 10 :   0.4167 0.4167 0.4167  plane waves:     648

 maximum and minimum number of plane-waves per node :       331      320

 maximum number of plane-waves:       660
 maximum index in each direction: 
   IXMAX=    5   IYMAX=    5   IZMAX=    5
   IXMIN=   -5   IYMIN=   -5   IZMIN=   -5


 parallel 3D FFT for wavefunctions:
    minimum data exchange during FFTs selected (reduces bandwidth)
 parallel 3D FFT for charge:
    minimum data exchange during FFTs selected (reduces bandwidth)


 total amount of memory used by VASP MPI-rank0    34102. kBytes
=======================================================================

   base      :      30000. kBytes
   nonl-proj :        496. kBytes
   fftplans  :       1169. kBytes
   grid      :       1645. kBytes
   one-center:         31. kBytes
   wavefun   :        761. kBytes
 
     INWAV:  cpu time    0.0000: real time    0.0000
 Broyden mixing: mesh for mixing (old mesh)
   NGX = 11   NGY = 11   NGZ = 11
  (NGX  = 48   NGY  = 48   NGZ  = 48)
  gives a total of   1331 points

 initial charge density was supplied:
 charge density of overlapping atoms calculated
 number of electron      44.0000000 magnetization 
 keeping initial charge density in first step


--------------------------------------------------------------------------------------------------------


 Maximum index for augmentation-charges         1721 (set IRDMAX)


--------------------------------------------------------------------------------------------------------


 First call to EWALD:  gamma=   0.466
 Maximum number of real-space cells 3x 3x 3
 Maximum number of reciprocal cells 3x 3x 3

    FEWALD:  cpu time    0.0021: real time    0.0021


--------------------------------------- Iteration      1(   1)  ---------------------------------------


    POTLOK:  cpu time    0.0252: real time    0.0489
    SETDIJ:  cpu time    0.0043: real time    0.0043
     EDDAV:  cpu time    0.1584: real time    0.1585
       DOS:  cpu time    0.0004: real time    0.0004
    --------------------------------------------
      LOOP:  cpu time    0.1884: real time    0.2122

 eigenvalue-minimisations  :   528
 total energy-change (2. order) : 0.2815358E+03  (-0.1439250E+04)
 number of electron      44.0000000 magnetization 
 augmentation part       44.0000000 magnetization 

 Free energy of the ion-electron system (eV)
  ---------------------------------------------------
  alpha Z        PSCENC =       213.24625660
  Ewald energy   TEWEN  =     -4204.49773138
  -Hartree energ DENC   =     -1566.23131134
  -exchange      EXHF   =         0.00000000
  -V(xc)+E(xc)   XCENC  =       181.59356110
  PAW double counting   =      4912.82663951    -5336.19386850
  entropy T*S    EENTRO =        -0.00014773
  eigenvalues    EBANDS =       517.03805984
  atomic energy  EATOM  =      5563.75431560
  Solvation  Ediel_sol  =         0.00000000
  ---------------------------------------------------
  free energy    TOTEN  =       281.53577372 eV

  energy without entropy =      281.53592144  energy(sigma->0) =      281.53584758


--------------------------------------------------------------------------------------------------------




--------------------------------------- Iteration      1(   2)  ---------------------------------------


     EDDAV:  cpu time    0.1336: real time    0.1336
       DOS:  cpu time    0.0004: real time    0.0004
    --------------------------------------------
      LOOP:  cpu time    0.1340: real time    0.1341

 eigenvalue-minimisations  :   520
 total energy-change (2. order) :-0.2796384E+03  (-0.2743909E+03)
 number of electron      44.0000000 magnetization 
 augmentation part       44.0000000 magnetization 

 Free energy of the ion-electron system (eV)
  ---------------------------------------------------
  alpha Z        PSCENC =       213.24625660
  Ewald energy   TEWEN  =     -4204.49773138
  -Hartree energ DENC   =     -1566.23131134
  -exchange      EXHF   =         0.00000000
  -V(xc)+E(xc)   XCENC  =       181.59356110
  PAW double counting   =      4912.82663951    -5336.19386850
  entropy T*S    EENTRO =        -0.00671012
  eigenvalues    EBANDS =       237.40619283
  atomic energy  EATOM  =      5563.75431560
  Solvation  Ediel_sol  =         0.00000000
  ---------------------------------------------------
  free energy    TOTEN  =         1.89734431 eV

  energy without entropy =        1.90405443  energy(sigma->0) =        1.90069937


--------------------------------------------------------------------------------------------------------




--------------------------------------- Iteration      1(   3)  ---------------------------------------


     EDDAV:  cpu time    0.1439: real time    0.1439
       DOS:  cpu time    0.0005: real time    0.0005
    --------------------------------------------
      LOOP:  cpu time    0.1444: real time    0.1444

 eigenvalue-minimisations  :   582
 total energy-change (2. order) :-0.1934913E+02  (-0.1836166E+02)
 number of electron      44.0000000 magnetization 
 augmentation part       44.0000000 magnetization 

 Free energy of the ion-electron system (eV)
  ---------------------------------------------------
  alpha Z        PSCENC =       213.24625660
  Ewald energy   TEWEN  =     -4204.49773138
  -Hartree energ DENC   =     -1566.23131134
  -exchange      EXHF   =         0.00000000
  -V(xc)+E(xc)   XCENC  =       181.59356110
  PAW double counting   =      4912.82663951    -5336.19386850
  entropy T*S    EENTRO =        -0.00631080
  eigenvalues    EBANDS =       218.05666003
  atomic energy  EATOM  =      5563.75431560
  Solvation  Ediel_sol  =         0.00000000
  ---------------------------------------------------
  free energy    TOTEN  =       -17.45178917 eV

  energy without entropy =      -17.44547837  energy(sigma->0) =      -17.44863377


--------------------------------------------------------------------------------------------------------




--------------------------------------- Iteration      1(   4)  ---------------------------------------


     EDDAV:  cpu time    0.1450: real time    0.1450
       DOS:  cpu time    0.0003: real time    0.0003
    --------------------------------------------
      LOOP:  cpu time    0.1453: real time    0.1453

 eigenvalue-minimisations  :   614
 total energy-change (2. order) :-0.4123904E+00  (-0.4104798E+00)
 number of electron      44.0000000 magnetization 
 augmentation part       44.0000000 magnetization 

 Free energy of the ion-electron system (eV)
  ---------------------------------------------------
  alpha Z        PSCENC =       213.24625660
  Ewald energy   TEWEN  =     -4204.49773138
  -Hartree energ DENC   =     -1566.23131134
  -exchange      EXHF   =         0.00000000
  -V(xc)+E(xc)   XCENC  =       181.59356110
  PAW double counting   =      4912.82663951    -5336.19386850
  entropy T*S    EENTRO =        -0.00634417
  eigenvalues    EBANDS =       217.64430298
  atomic energy  EATOM  =      5563.75431560
  Solvation  Ediel_sol  =         0.00000000
  ---------------------------------------------------
  free energy    TOTEN  =       -17.86417959 eV

  energy without entropy =      -17.85783542  energy(sigma->0) =      -17.86100751


--------------------------------------------------------------------------------------------------------




--------------------------------------- Iteration      1(   5)  ---------------------------------------


     EDDAV:  cpu time    0.1273: real time    0.1273
       DOS:  cpu time    0.0004: real time    0.0004
    CHARGE:  cpu time    0.0137: real time    0.0137
    MIXING:  cpu time    0.0004: real time    0.0004
    --------------------------------------------
      LOOP:  cpu time    0.1418: real time    0.1418

 eigenvalue-minimisations  :   660
 total energy-change (2. order) :-0.5146824E-02  (-0.5142518E-02)
 number of electron      43.9999746 magnetization 
 augmentation part       26.0527408 magnetization 

 Broyden mixing:
  rms(total) = 0.14719E+01    rms(broyden)= 0.14716E+01
  rms(prec ) = 0.33979E+01
  weight for this iteration     100.00

 Free energy of the ion-electron system (eV)
  ---------------------------------------------------
  alpha Z        PSCENC =       213.24625660
  Ewald energy   TEWEN  =     -4204.49773138
  -Hartree energ DENC   =     -1566.23131134
  -exchange      EXHF   =         0.00000000
  -V(xc)+E(xc)   XCENC  =       181.59356110
  PAW double counting   =      4912.82663951    -5336.19386850
  entropy T*S    EENTRO =        -0.00634479
  eigenvalues    EBANDS =       217.63915677
  atomic energy  EATOM  =      5563.75431560
  Solvation  Ediel_sol  =         0.00000000
  ---------------------------------------------------
  free energy    TOTEN  =       -17.86932642 eV

  energy without entropy =      -17.86298163  energy(sigma->0) =      -17.86615402


--------------------------------------------------------------------------------------------------------




--------------------------------------- Iteration      1(   6)  ---------------------------------------


    POTLOK:  cpu time    0.0108: real time    0.0108
    SETDIJ:  cpu time    0.0025: real time    0.0025
    EDDIAG:  cpu time    0.0277: real time    0.0277
  RMM-DIIS:  cpu time    0.0795: real time    0.0795
    ORTHCH:  cpu time    0.0022: real time    0.0022
       DOS:  cpu time    0.0002: real time    0.0002
    CHARGE:  cpu time    0.0133: real time    0.0133
    MIXING:  cpu time    0.0005: real time    0.0005
    --------------------------------------------
      LOOP:  cpu time    0.1368: real time    0.1368

 eigenvalue-minimisations  :   520
 total energy-change (2. order) : 0.1482630E+01  (-0.4424452E+01)
 number of electron      43.9999715 magnetization 
 augmentation part       29.5794231 magnetization 

 Broyden mixing:
  rms(total) = 0.92943E+00    rms(broyden)= 0.92886E+00
  rms(prec ) = 0.19418E+01
  weight for this iteration     100.00

 eigenvalues of (default mixing * dielectric matrix)
  average eigenvalue GAMMA=   0.6130
  0.6130

 Free energy of the ion-electron system (eV)
  ---------------------------------------------------
  alpha Z        PSCENC =       213.24625660
  Ewald energy   TEWEN  =     -4204.49773138
  -Hartree energ DENC   =     -1452.09901031
  -exchange      EXHF   =         0.00000000
  -V(xc)+E(xc)   XCENC  =       176.03259460
  PAW double counting   =      4900.40996252    -5300.13224946
  entropy T*S    EENTRO =        -0.00000000
  eigenvalues    EBANDS =        86.89916500
  atomic energy  EATOM  =      5563.75431560
  Solvation  Ediel_sol  =         0.00000000
  ---------------------------------------------------
  free energy    TOTEN  =       -16.38669683 eV

  energy without entropy =      -16.38669683  energy(sigma->0) =      -16.38669683


--------------------------------------------------------------------------------------------------------




--------------------------------------- Iteration      1(   7)  ---------------------------------------


    POTLOK:  cpu time    0.0107: real time    0.0107
    SETDIJ:  cpu time    0.0022: real time    0.0022
    EDDIAG:  cpu time    0.0276: real time    0.0276
  RMM-DIIS:  cpu time    0.0791: real time    0.0791
    ORTHCH:  cpu time    0.0021: real time    0.0021
       DOS:  cpu time    0.0004: real time    0.0004
    CHARGE:  cpu time    0.0132: real time    0.0132
    MIXING:  cpu time    0.0004: real time    0.0004
    --------------------------------------------
      LOOP:  cpu time    0.1358: real time    0.1358

 eigenvalue-minimisations  :   520
 total energy-change (2. order) : 0.1801271E+01  (-0.8370905E+00)
 number of electron      43.9999728 magnetization 
 augmentation part       28.1373605 magnetization 

 Broyden mixing:
  rms(total) = 0.76352E-01    rms(broyden)= 0.75882E-01
  rms(prec ) = 0.18710E+00
  weight for this iteration     100.00

 eigenvalues of (default mixing * dielectric matrix)
  average eigenvalue GAMMA=   1.1796
  1.7476  0.6116

 Free energy of the ion-electron system (eV)
  ---------------------------------------------------
  alpha Z        PSCENC =       213.24625660
  Ewald energy   TEWEN  =     -4204.49773138
  -Hartree energ DENC   =     -1491.58936303
  -exchange      EXHF   =         0.00000000
  -V(xc)+E(xc)   XCENC  =       178.07478292
  PAW double counting   =      4988.64989743    -5407.84857443
  entropy T*S    EENTRO =        -0.00203023
  eigenvalues    EBANDS =       145.62702026
  atomic energy  EATOM  =      5563.75431560
  Solvation  Ediel_sol  =         0.00000000
  ---------------------------------------------------
  free energy    TOTEN  =       -14.58542626 eV

  energy without entropy =      -14.58339602  energy(sigma->0) =      -14.58441114


--------------------------------------------------------------------------------------------------------




--------------------------------------- Iteration      1(   8)  ---------------------------------------


    POTLOK:  cpu time    0.0104: real time    0.0104
    SETDIJ:  cpu time    0.0021: real time    0.0021
    EDDIAG:  cpu time    0.0275: real time    0.0275
  RMM-DIIS:  cpu time    0.0798: real time    0.0798
    ORTHCH:  cpu time    0.0021: real time    0.0021
       DOS:  cpu time    0.0004: real time    0.0004
    CHARGE:  cpu time    0.0132: real time    0.0132
    MIXING:  cpu time    0.0004: real time    0.0004
    --------------------------------------------
      LOOP:  cpu time    0.1360: real time    0.1360

 eigenvalue-minimisations  :   524
 total energy-change (2. order) : 0.1262688E-01  (-0.9470647E-02)
 number of electron      43.9999728 magnetization 
 augmentation part       28.0743687 magnetization 

 Broyden mixing:
  rms(total) = 0.68674E-01    rms(broyden)= 0.68634E-01
  rms(prec ) = 0.16523E+00
  weight for this iteration     100.00

 eigenvalues of (default mixing * dielectric matrix)
  average eigenvalue GAMMA=   1.3219
  0.6354  0.9382  2.3920

 Free energy of the ion-electron system (eV)
  ---------------------------------------------------
  alpha Z        PSCENC =       213.24625660
  Ewald energy   TEWEN  =     -4204.49773138
  -Hartree energ DENC   =     -1485.52231616
  -exchange      EXHF   =         0.00000000
  -V(xc)+E(xc)   XCENC  =       177.85926324
  PAW double counting   =      5064.98119332    -5491.77422363
  entropy T*S    EENTRO =        -0.00305466
  eigenvalues    EBANDS =       147.38349769
  atomic energy  EATOM  =      5563.75431560
  Solvation  Ediel_sol  =         0.00000000
  ---------------------------------------------------
  free energy    TOTEN  =       -14.57279938 eV

  energy without entropy =      -14.56974472  energy(sigma->0) =      -14.57127205


--------------------------------------------------------------------------------------------------------




--------------------------------------- Iteration      1(   9)  ---------------------------------------


    POTLOK:  cpu time    0.0106: real time    0.0106
    SETDIJ:  cpu time    0.0022: real time    0.0022
    EDDIAG:  cpu time    0.0275: real time    0.0275
  RMM-DIIS:  cpu time    0.0803: real time    0.0803
    ORTHCH:  cpu time    0.0022: real time    0.0022
       DOS:  cpu time    0.0004: real time    0.0004
    CHARGE:  cpu time    0.0130: real time    0.0130
    MIXING:  cpu time    0.0005: real time    0.0005
    --------------------------------------------
      LOOP:  cpu time    0.1366: real time    0.1366

 eigenvalue-minimisations  :   529
 total energy-change (2. order) : 0.7803803E-02  (-0.2534665E-02)
 number of electron      43.9999727 magnetization 
 augmentation part       28.1731040 magnetization 

 Broyden mixing:
  rms(total) = 0.68790E-02    rms(broyden)= 0.68569E-02
  rms(prec ) = 0.14517E-01
  weight for this iteration     100.00

 eigenvalues of (default mixing * dielectric matrix)
  average eigenvalue GAMMA=   1.6108
  3.0060  0.6368  0.9126  1.8878

 Free energy of the ion-electron system (eV)
  ---------------------------------------------------
  alpha Z        PSCENC =       213.24625660
  Ewald energy   TEWEN  =     -4204.49773138
  -Hartree energ DENC   =     -1479.39679962
  -exchange      EXHF   =         0.00000000
  -V(xc)+E(xc)   XCENC  =       177.59202457
  PAW double counting   =      5097.45948680    -5526.04516306
  entropy T*S    EENTRO =        -0.00151983
  eigenvalues    EBANDS =       143.32413474
  atomic energy  EATOM  =      5563.75431560
  Solvation  Ediel_sol  =         0.00000000
  ---------------------------------------------------
  free energy    TOTEN  =       -14.56499557 eV

  energy without entropy =      -14.56347574  energy(sigma->0) =      -14.56423566


--------------------------------------------------------------------------------------------------------




--------------------------------------- Iteration      1(  10)  ---------------------------------------


    POTLOK:  cpu time    0.0107: real time    0.0107
    SETDIJ:  cpu time    0.0022: real time    0.0022
    EDDIAG:  cpu time    0.0277: real time    0.0277
  RMM-DIIS:  cpu time    0.0790: real time    0.0790
    ORTHCH:  cpu time    0.0022: real time    0.0022
       DOS:  cpu time    0.0003: real time    0.0003
    CHARGE:  cpu time    0.0132: real time    0.0132
    MIXING:  cpu time    0.0005: real time    0.0005
    --------------------------------------------
      LOOP:  cpu time    0.1357: real time    0.1357

 eigenvalue-minimisations  :   523
 total energy-change (2. order) :-0.1893889E-03  (-0.1568062E-03)
 number of electron      43.9999727 magnetization 
 augmentation part       28.1746864 magnetization 

 Broyden mixing:
  rms(total) = 0.62344E-02    rms(broyden)= 0.62338E-02
  rms(prec ) = 0.14032E-01
  weight for this iteration     100.00

 eigenvalues of (default mixing * dielectric matrix)
  average eigenvalue GAMMA=   1.6344
  3.1039  2.2604  0.6346  1.0344  1.1389

 Free energy of the ion-electron system (eV)
  ---------------------------------------------------
  alpha Z        PSCENC =       213.24625660
  Ewald energy   TEWEN  =     -4204.49773138
  -Hartree energ DENC   =     -1479.63163682
  -exchange      EXHF   =         0.00000000
  -V(xc)+E(xc)   XCENC  =       177.60415813
  PAW double counting   =      5099.12490339    -5527.57326021
  entropy T*S    EENTRO =        -0.00154958
  eigenvalues    EBANDS =       143.40935930
  atomic energy  EATOM  =      5563.75431560
  Solvation  Ediel_sol  =         0.00000000
  ---------------------------------------------------
  free energy    TOTEN  =       -14.56518496 eV

  energy without entropy =      -14.56363539  energy(sigma->0) =      -14.56441017


--------------------------------------------------------------------------------------------------------




--------------------------------------- Iteration      1(  11)  ---------------------------------------


    POTLOK:  cpu time    0.0103: real time    0.0103
    SETDIJ:  cpu time    0.0021: real time    0.0021
    EDDIAG:  cpu time    0.0278: real time    0.0278
  RMM-DIIS:  cpu time    0.0791: real time    0.0791
    ORTHCH:  cpu time    0.0021: real time    0.0021
       DOS:  cpu time    0.0004: real time    0.0004
    CHARGE:  cpu time    0.0128: real time    0.0128
    MIXING:  cpu time    0.0005: real time    0.0005
    --------------------------------------------
      LOOP:  cpu time    0.1351: real time    0.1351

 eigenvalue-minimisations  :   520
 total energy-change (2. order) : 0.1878897E-04  (-0.5714543E-04)
 number of electron      43.9999728 magnetization 
 augmentation part       28.1645072 magnetization 

 Broyden mixing:
  rms(total) = 0.18715E-02    rms(broyden)= 0.18691E-02
  rms(prec ) = 0.39752E-02
  weight for this iteration     100.00

 eigenvalues of (default mixing * dielectric matrix)
  average eigenvalue GAMMA=   1.4836
  2.6847  2.4014  0.6344  0.9682  0.9682  1.2443

 Free energy of the ion-electron system (eV)
  ---------------------------------------------------
  alpha Z        PSCENC =       213.24625660
  Ewald energy   TEWEN  =     -4204.49773138
  -Hartree energ DENC   =     -1480.20597003
  -exchange      EXHF   =         0.00000000
  -V(xc)+E(xc)   XCENC  =       177.63109704
  PAW double counting   =      5098.46611411    -5526.72814481
  entropy T*S    EENTRO =        -0.00166413
  eigenvalues    EBANDS =       143.77056083
  atomic energy  EATOM  =      5563.75431560
  Solvation  Ediel_sol  =         0.00000000
  ---------------------------------------------------
  free energy    TOTEN  =       -14.56516617 eV

  energy without entropy =      -14.56350204  energy(sigma->0) =      -14.56433411


--------------------------------------------------------------------------------------------------------




--------------------------------------- Iteration      1(  12)  ---------------------------------------


    POTLOK:  cpu time    0.0107: real time    0.0107
    SETDIJ:  cpu time    0.0021: real time    0.0021
    EDDIAG:  cpu time    0.0276: real time    0.0276
  RMM-DIIS:  cpu time    0.0616: real time    0.0616
    ORTHCH:  cpu time    0.0021: real time    0.0021
       DOS:  cpu time    0.0003: real time    0.0003
    --------------------------------------------
      LOOP:  cpu time    0.1044: real time    0.1044

 eigenvalue-minimisations  :   378
 total energy-change (2. order) : 0.5175421E-05  (-0.4186566E-05)
 number of electron      43.9999728 magnetization 
 augmentation part       28.1645072 magnetization 

 Free energy of the ion-electron system (eV)
  ---------------------------------------------------
  alpha Z        PSCENC =       213.24625660
  Ewald energy   TEWEN  =     -4204.49773138
  -Hartree energ DENC   =     -1480.10159075
  -exchange      EXHF   =         0.00000000
  -V(xc)+E(xc)   XCENC  =       177.62569634
  PAW double counting   =      5098.06420748    -5526.28692759
  entropy T*S    EENTRO =        -0.00161887
  eigenvalues    EBANDS =       143.63223157
  atomic energy  EATOM  =      5563.75431560
  Solvation  Ediel_sol  =         0.00000000
  ---------------------------------------------------
  free energy    TOTEN  =       -14.56516100 eV

  energy without entropy =      -14.56354213  energy(sigma->0) =      -14.56435156


--------------------------------------------------------------------------------------------------------




 average (electrostatic) potential at core
  the test charge radii are     0.9430
  (the norm of the test charge is              1.0000)
       1 -65.0728       2 -65.0728       3 -65.0728       4 -65.0728
 
 
 
 E-fermi :   5.7092     XC(G=0): -11.8762     alpha+bet :-11.5573


 k-point     1 :       0.0833    0.0833    0.0833
  band No.  band energies     occupation 
      1      -2.1730      2.00000
      2       1.8708      2.00000
      3       1.8708      2.00000
      4       1.8708      2.00000
      5       2.2315      2.00000
      6       2.2315      2.00000
      7       2.2315      2.00000
      8       3.2382      2.00000
      9       3.3154      2.00000
     10       3.3154      2.00000
     11       3.9215      2.00000
     12       3.9215      2.00000
     13       4.2688      2.00000
     14       4.2688      2.00000
     15       4.2688      2.00000
     16       4.3089      2.00000
     17       4.3089      2.00000
     18       4.3089      2.00000
     19       4.4675      2.00000
     20       4.4675      2.00000
     21       4.4675      2.00000
     22       7.2917      0.00000
     23       7.2917      0.00000
     24       7.2917      0.00000
     25      12.7684      0.00000
     26      12.7684      0.00000

 k-point     2 :       0.2500    0.0833    0.0833
  band No.  band energies     occupation 
      1      -1.5792      2.00000
      2       1.7533      2.00000
      3       2.1053      2.00000
      4       2.1053      2.00000
      5       2.3635      2.00000
      6       2.3774      2.00000
      7       2.3774      2.00000
      8       3.1085      2.00000
      9       3.4180      2.00000
     10       3.4219      2.00000
     11       3.7121      2.00000
     12       3.7121      2.00000
     13       3.8104      2.00000
     14       3.9544      2.00000
     15       3.9921      2.00000
     16       4.1503      2.00000
     17       4.1601      2.00000
     18       4.1601      2.00000
     19       4.3819      2.00000
     20       4.4510      2.00000
     21       4.4510      2.00000
     22       5.2619      2.00000
     23       8.3169      0.00000
     24       8.3169      0.00000
     25      13.1348      0.00000
     26      13.1377      0.00000

 k-point     3 :       0.4167    0.0833    0.0833
  band No.  band energies     occupation 
      1      -0.4545      2.00000
      2       0.9359      2.00000
      3       2.4119      2.00000
      4       2.4119      2.00000
      5       2.5966      2.00000
      6       2.6596      2.00000
      7       2.6596      2.00000
      8       2.8696      2.00000
      9       3.1230      2.00000
     10       3.1230      2.00000
     11       3.4891      2.00000
     12       3.5023      2.00000
     13       3.6246      2.00000
     14       3.8082      2.00000
     15       3.8909      2.00000
     16       3.9461      2.00000
     17       3.9461      2.00000
     18       4.1140      2.00000
     19       4.2027      2.00000
     20       4.2556      2.00000
     21       4.4447      2.00000
     22       4.4447      2.00000
     23       9.8263      0.00000
     24       9.8263      0.00000
     25      11.6880      0.00000
     26      11.6880      0.00000

 k-point     4 :       0.2500    0.2500    0.0833
  band No.  band energies     occupation 
      1      -1.0077      2.00000
      2       2.0361      2.00000
      3       2.0361      2.00000
      4       2.2757      2.00000
      5       2.4866      2.00000
      6       2.4934      2.00000
      7       2.4934      2.00000
      8       3.0633      2.00000
      9       3.4093      2.00000
     10       3.4093      2.00000
     11       3.4185      2.00000
     12       3.4604      2.00000
     13       3.4834      2.00000
     14       3.8121      2.00000
     15       4.0045      2.00000
     16       4.0498      2.00000
     17       4.0498      2.00000
     18       4.0597      2.00000
     19       4.3476      2.00000
     20       4.3476      2.00000
     21       4.3629      2.00000
     22       6.1270      0.00000
     23       6.1270      0.00000
     24       9.1306      0.00000
     25      11.1816      0.00000
     26      13.5489      0.00000

 k-point     5 :       0.4167    0.2500    0.0833
  band No.  band energies     occupation 
      1       0.0596      2.00000
      2       1.3317      2.00000
      3       2.4171      2.00000
      4       2.5030      2.00000
      5       2.6316      2.00000
      6       2.6933      2.00000
      7       2.7097      2.00000
      8       2.9069      2.00000
      9       2.9817      2.00000
     10       3.1301      2.00000
     11       3.2302      2.00000
     12       3.3585      2.00000
     13       3.5919      2.00000
     14       3.8084      2.00000
     15       3.8518      2.00000
     16       3.8672      2.00000
     17       3.8905      2.00000
     18       4.1481      2.00000
     19       4.2945      2.00000
     20       4.2951      2.00000
     21       4.3004      2.00000
     22       4.7793      2.00000
     23       7.3302      0.00000
     24       8.9198      0.00000
     25      10.6094      0.00000
     26      12.3644      0.00000

 k-point     6 :       0.4167    0.4167    0.0833
  band No.  band energies     occupation 
      1       0.9652      2.00000
      2       1.9074      2.00000
      3       1.9074      2.00000
      4       2.3085      2.00000
      5       2.8697      2.00000
      6       2.8838      2.00000
      7       2.8838      2.00000
      8       2.9322      2.00000
      9       3.0389      2.00000
     10       3.0389      2.00000
     11       3.0706      2.00000
     12       3.2530      2.00000
     13       3.5790      2.00000
     14       3.7057      2.00000
     15       3.7093      2.00000
     16       3.7093      2.00000
     17       3.8699      2.00000
     18       4.0710      2.00000
     19       4.0710      2.00000
     20       4.1352      2.00000
     21       4.7278      2.00000
     22       5.5773      1.99981
     23       5.5773      1.99981
     24       6.8830      0.00000
     25      11.8683      0.00000
     26      13.6161      0.00000

 k-point     7 :       0.2500    0.2500    0.2500
  band No.  band energies     occupation 
      1      -0.4746      2.00000
      2       2.1440      2.00000
      3       2.1440      2.00000
      4       2.1440      2.00000
      5       2.6384      2.00000
      6       2.6384      2.00000
      7       2.6384      2.00000
      8       3.0908      2.00000
      9       3.3121      2.00000
     10       3.3121      2.00000
     11       3.3121      2.00000
     12       3.4055      2.00000
     13       3.4055      2.00000
     14       3.7931      2.00000
     15       3.7931      2.00000
     16       3.7931      2.00000
     17       4.0027      2.00000
     18       4.0027      2.00000
     19       4.4173      2.00000
     20       4.4173      2.00000
     21       4.4173      2.00000
     22       6.7014      0.00000
     23       6.7014      0.00000
     24       6.7014      0.00000
     25      11.8610      0.00000
     26      11.8610      0.00000

 k-point     8 :       0.4167    0.2500    0.2500
  band No.  band energies     occupation 
      1       0.4867      2.00000
      2       1.5402      2.00000
      3       2.2235      2.00000
      4       2.2235      2.00000
      5       2.8200      2.00000
      6       2.8200      2.00000
      7       2.8915      2.00000
      8       3.0588      2.00000
      9       3.2225      2.00000
     10       3.2418      2.00000
     11       3.2418      2.00000
     12       3.3351      2.00000
     13       3.4367      2.00000
     14       3.5763      2.00000
     15       3.6652      2.00000
     16       3.6652      2.00000
     17       4.1567      2.00000
     18       4.2161      2.00000
     19       4.3566      2.00000
     20       4.3566      2.00000
     21       4.3699      2.00000
     22       4.9628      2.00000
     23       7.6131      0.00000
     24       7.6131      0.00000
     25       9.8707      0.00000
     26       9.8707      0.00000

 k-point     9 :       0.4167    0.4167    0.2500
  band No.  band energies     occupation 
      1       1.1609      2.00000
      2       1.7785      2.00000
      3       1.7785      2.00000
      4       1.9910      2.00000
      5       3.0207      2.00000
      6       3.0990      2.00000
      7       3.0990      2.00000
      8       3.2806      2.00000
      9       3.3404      2.00000
     10       3.3503      2.00000
     11       3.3503      2.00000
     12       3.3766      2.00000
     13       3.4551      2.00000
     14       3.4818      2.00000
     15       3.4818      2.00000
     16       3.4894      2.00000
     17       4.1341      2.00000
     18       4.3026      2.00000
     19       4.3026      2.00000
     20       4.3086      2.00000
     21       4.5957      2.00000
     22       5.6386      1.95413
     23       5.6386      1.95413
     24       6.8552      0.00000
     25       9.5362      0.00000
     26      10.9650      0.00000

 k-point    10 :       0.4167    0.4167    0.4167
  band No.  band energies     occupation 
      1       1.4124      2.00000
      2       1.6788      2.00000
      3       1.6788      2.00000
      4       1.6788      2.00000
      5       3.1945      2.00000
      6       3.1945      2.00000
      7       3.1945      2.00000
      8       3.2837      2.00000
      9       3.2837      2.00000
     10       3.3259      2.00000
     11       3.3259      2.00000
     12       3.3259      2.00000
     13       3.9110      2.00000
     14       3.9110      2.00000
     15       3.9110      2.00000
     16       4.2943      2.00000
     17       4.3256      2.00000
     18       4.3256      2.00000
     19       4.3896      2.00000
     20       4.3896      2.00000
     21       4.3896      2.00000
     22       5.7687      0.09212
     23       5.7687      0.09212
     24       5.7687      0.09211
     25       9.2463      0.00000
     26       9.2463      0.00000


--------------------------------------------------------------------------------------------------------


 soft charge-density along one line, spin component           1
         0         1         2         3         4         5         6         7         8         9
 total charge-density along one line
 
 pseudopotential strength for first ion, spin component:           1
 -3.900  -0.000   0.000  -0.000  -0.000  -3.969   0.000  -0.000
 -0.000  -3.900  -0.000   0.000   0.000   0.000  -3.969   0.000
  0.000  -0.000  -3.886  -0.000   0.000  -0.000   0.000  -3.980
 -0.000   0.000  -0.000  -3.900  -0.000   0.000  -0.000   0.000
 -0.000   0.000   0.000  -0.000  -3.886   0.000  -0.000  -0.000
 -3.969   0.000  -0.000   0.000   0.000   9.765  -0.000   0.000
  0.000  -3.969   0.000  -0.000  -0.000  -0.000   9.765  -0.000
 -0.000   0.000  -3.980   0.000  -0.000   0.000  -0.000   9.773
  0.000  -0.000   0.000  -3.969   0.000  -0.000  -0.000  -0.000
  0.000  -0.000  -0.000   0.000  -3.980  -0.000   0.000   0.000
  0.000   0.000   0.000   0.000   0.000   0.000   0.000  -0.000
  0.000   0.000   0.000   0.000   0.000   0.000   0.000  -0.000
  0.000  -0.000   0.000  -0.000   0.000   0.000   0.000   0.000
 -0.000  -0.000  -0.000   0.000  -0.000  -0.000   0.000   0.000
 -0.000  -0.000  -0.000  -0.000   0.000  -0.000  -0.000   0.000
  0.000  -0.000   0.000   0.000   0.000   0.000   0.000   0.000
  0.000  -0.000  -0.000   0.000   0.000  -0.000   0.000   0.000
 -0.000   0.000  -0.000  -0.000   0.000  -0.000  -0.000   0.000
 total augmentation occupancy for first ion, spin component:           1
  1.906   0.000   0.000   0.000   0.000  -0.023   0.000   0.000   0.000   0.000  -0.000  -0.000  -0.000   0.000   0.000   0.000
 -0.000   1.906  -0.000   0.000  -0.000  -0.000  -0.023   0.000   0.000   0.000  -0.000   0.000   0.000   0.000  -0.000   0.000
  0.000  -0.000   1.926   0.000   0.000  -0.000   0.000  -0.038  -0.000  -0.000  -0.000   0.000  -0.000   0.000  -0.000  -0.000
 -0.000  -0.000  -0.000   1.906   0.000  -0.000  -0.000   0.000  -0.023  -0.000  -0.000  -0.000   0.000  -0.000   0.000  -0.000
  0.000  -0.000   0.000   0.000   1.926   0.000  -0.000   0.000   0.000  -0.038  -0.000  -0.000   0.000  -0.000  -0.000  -0.000
 -0.023   0.000  -0.000   0.000   0.000   0.012  -0.000  -0.000   0.000  -0.000   0.000   0.000  -0.000  -0.000   0.000  -0.000
  0.000  -0.023   0.000   0.000  -0.000   0.000   0.012   0.000   0.000  -0.000   0.000  -0.000  -0.000  -0.000  -0.000   0.000
 -0.000   0.000  -0.038   0.000   0.000  -0.000   0.000   0.011   0.000   0.000   0.000  -0.000   0.000   0.000   0.000   0.000
  0.000   0.000  -0.000  -0.023   0.000   0.000   0.000   0.000   0.012   0.000  -0.000   0.000  -0.000   0.000  -0.000   0.000
 -0.000   0.000   0.000   0.000  -0.038  -0.000   0.000   0.000   0.000   0.011  -0.000  -0.000  -0.000   0.000   0.000  -0.000
 -0.000  -0.000  -0.000   0.000   0.000  -0.000  -0.000   0.000  -0.000  -0.000   1.569  -0.135   0.000   0.000   0.000   0.000
 -0.000  -0.000   0.000  -0.000   0.000  -0.000   0.000  -0.000  -0.000  -0.000  -0.135   0.016   0.000   0.000   0.000   0.000
 -0.000   0.000   0.000   0.000  -0.000  -0.000  -0.000  -0.000  -0.000  -0.000   0.000   0.000   0.178   0.000   0.000  -0.011
  0.000   0.000   0.000  -0.000   0.000  -0.000  -0.000   0.000   0.000  -0.000   0.000   0.000  -0.000   0.178  -0.000   0.000
  0.000  -0.000  -0.000   0.000   0.000   0.000  -0.000   0.000  -0.000   0.000   0.000   0.000  -0.000  -0.000   0.178   0.000
  0.000   0.000  -0.000  -0.000   0.000  -0.000   0.000   0.000   0.000   0.000   0.000   0.000  -0.011   0.000   0.000   0.001
 -0.000  -0.000   0.000  -0.000   0.000  -0.000  -0.000  -0.000  -0.000  -0.000   0.000   0.000   0.000  -0.011   0.000  -0.000
  0.000  -0.000   0.000  -0.000   0.000   0.000  -0.000  -0.000   0.000   0.000   0.000   0.000   0.000   0.000  -0.011  -0.000


------------------------ aborting loop because EDIFF is reached ----------------------------------------


    CHARGE:  cpu time    0.0129: real time    0.0129
    FORLOC:  cpu time    0.0008: real time    0.0008
    FORNL :  cpu time    0.0259: real time    0.0259
    STRESS:  cpu time    0.0448: real time    0.0448
    FORCOR:  cpu time    0.0106: real time    0.0106
    FORHAR:  cpu time    0.0025: real time    0.0025
    MIXING:  cpu time    0.0005: real time    0.0005
    OFIELD:  cpu time    0.0000: real time    0.0000

  FORCE on cell =-STRESS in cart. coord.  units (eV):
  Direction    XX          YY          ZZ          XY          YZ          ZX
  --------------------------------------------------------------------------------------
  Alpha Z   213.24626   213.24626   213.24626
  Ewald   -1401.49986 -1401.49986 -1401.49986     0.00000    -0.00000    -0.00000
  Hartree   493.41090   493.41090   493.41090    -0.00000    -0.00000    -0.00000
  E(xc)    -256.42709  -256.42709  -256.42709    -0.00000    -0.00000    -0.00000
  Local     305.30629   305.30629   305.30629    -0.00000    -0.00000    -0.00000
  n-local   -88.51250   -95.64579   -97.80050     0.15293     2.73451     1.53213
  augment   378.57411   378.57411   378.57411    -0.00000     0.00000    -0.00000
  Kinetic   363.07214   355.94284   350.12050    -3.70872     0.01639    -0.99625
  Fock        0.00000     0.00000     0.00000     0.00000     0.00000     0.00000
  -------------------------------------------------------------------------------------
  Total      -4.99716    -4.99716    -4.99716    -0.00000     0.00000    -0.00000
  in kB    -145.90923  -145.90923  -145.90923    -0.00000     0.00000    -0.00000
  external pressure =     -145.91 kB  Pullay stress =        0.00 kB


 VOLUME and BASIS-vectors are now :
 -----------------------------------------------------------------------------
  energy-cutoff  :      300.00
  volume of cell :       54.87
      direct lattice vectors                 reciprocal lattice vectors
     3.800000000  0.000000000  0.000000000     0.263157895  0.000000000  0.000000000
     0.000000000  3.800000000  0.000000000     0.000000000  0.263157895  0.000000000
     0.000000000  0.000000000  3.800000000     0.000000000  0.000000000  0.263157895

  length of vectors
     3.800000000  3.800000000  3.800000000     0.263157895  0.263157895  0.263157895


 FORCES acting on ions
    electron-ion (+dipol)            ewald-force                    non-local-force                 convergence-correction
 -----------------------------------------------------------------------------------------------
   -.586E-13 -.877E-13 -.920E-13   0.634E-14 -.744E-14 0.131E-14   -.106E-21 0.199E-22 0.000E+00   0.780E-13 -.320E-14 -.228E-13
   -.591E-13 0.693E-12 0.708E-12   0.624E-14 0.171E-13 0.554E-14   0.000E+00 0.000E+00 0.000E+00   0.628E-13 0.171E-13 0.507E-13
   0.702E-12 -.697E-13 -.501E-11   -.489E-14 -.188E-13 0.561E-14   0.265E-22 -.529E-22 -.662E-22   0.458E-14 -.231E-13 0.347E-13
   0.699E-12 -.335E-11 -.487E-11   -.499E-14 0.576E-14 -.105E-13   0.000E+00 0.000E+00 0.106E-21   0.115E-13 -.731E-15 -.392E-13
 -----------------------------------------------------------------------------------------------
   0.128E-11 -.282E-11 -.927E-11   0.269E-14 -.337E-14 0.190E-14   -.794E-22 -.331E-22 0.397E-22   0.157E-12 -.989E-14 0.234E-13
 
 
 POSITION                                       TOTAL-FORCE (eV/Angst)
 -----------------------------------------------------------------------------------
      0.00000      0.00000      0.00000         0.000000      0.000000     -0.000000
      0.00000      1.90000      1.90000        -0.000000      0.000000      0.000000
      1.90000      0.00000      1.90000        -0.000000      0.000000     -0.000000
      1.90000      1.90000      0.00000         0.000000     -0.000000     -0.000000
 -----------------------------------------------------------------------------------
    total drift:                                0.000000     -0.000000     -0.000000


--------------------------------------------------------------------------------------------------------



  FREE ENERGIE OF THE ION-ELECTRON SYSTEM (eV)
  ---------------------------------------------------
  free  energy   TOTEN  =       -14.56516100 eV

  energy  without entropy=      -14.56354213  energy(sigma->0) =      -14.56435156
 


--------------------------------------------------------------------------------------------------------


    POTLOK:  cpu time    0.0127: real time    0.0127


--------------------------------------------------------------------------------------------------------




--------------------------------------------------------------------------------------------------------


    WAVPRE:  cpu time    0.1571: real time    0.2123
    FEWALD:  cpu time    0.0002: real time    0.0002
    GENKIN:  cpu time    0.0011: real time    0.0011
    ORTHCH:  cpu time    0.0053: real time    0.0053
     LOOP+:  cpu time    1.9537: real time    2.0328


--------------------------------------- Iteration      2(   1)  ---------------------------------------


    POTLOK:  cpu time    0.0221: real time    0.0558
    SETDIJ:  cpu time    0.0046: real time    0.0046
     EDDAV:  cpu time    0.1367: real time    0.1367
       DOS:  cpu time    0.0004: real time    0.0004
    CHARGE:  cpu time    0.0173: real time    0.0173
    MIXING:  cpu time    0.0005: real time    0.0005
    --------------------------------------------
      LOOP:  cpu time    0.1817: real time    0.2153

 eigenvalue-minimisations  :   526
 total energy-change (2. order) :-0.3613743E+02  (-0.5138070E+02)
 number of electron      43.9999831 magnetization 
 augmentation part       21.8095314 magnetization 

 Broyden mixing:
  rms(total) = 0.50266E+01    rms(broyden)= 0.50256E+01
  rms(prec ) = 0.10753E+02
  weight for this iteration     100.00

 Free energy of the ion-electron system (eV)
  ---------------------------------------------------
  alpha Z        PSCENC =       256.96311714
  Ewald energy   TEWEN  =     -4474.15042185
  -Hartree energ DENC   =     -1575.05509047
  -exchange      EXHF   =         0.00000000
  -V(xc)+E(xc)   XCENC  =       192.25685924
  PAW double counting   =      5097.92510040    -5526.14591919
  entropy T*S    EENTRO =        -0.00234583
  eigenvalues    EBANDS =       413.75178999
  atomic energy  EATOM  =      5563.75431560
  Solvation  Ediel_sol  =         0.00000000
  ---------------------------------------------------
  free energy    TOTEN  =       -50.70259497 eV

  energy without entropy =      -50.70024914  energy(sigma->0) =      -50.70142206


--------------------------------------------------------------------------------------------------------




--------------------------------------- Iteration      2(   2)  ---------------------------------------


    POTLOK:  cpu time    0.0134: real time    0.0134
    SETDIJ:  cpu time    0.0030: real time    0.0030
    EDDIAG:  cpu time    0.0330: real time    0.0330
  RMM-DIIS:  cpu time    0.0947: real time    0.0947
    ORTHCH:  cpu time    0.0026: real time    0.0026
       DOS:  cpu time    0.0002: real time    0.0002
    CHARGE:  cpu time    0.0169: real time    0.0169
    MIXING:  cpu time    0.0005: real time    0.0005
    --------------------------------------------
      LOOP:  cpu time    0.1644: real time    0.1645

 eigenvalue-minimisations  :   524
 total energy-change (2. order) : 0.2390858E+02  (-0.3903622E+02)
 number of electron      43.9999775 magnetization 
 augmentation part       31.7481770 magnetization 

 Broyden mixing:
  rms(total) = 0.22069E+01    rms(broyden)= 0.22049E+01
  rms(prec ) = 0.51751E+01
  weight for this iteration     100.00

 eigenvalues of (default mixing * dielectric matrix)
  average eigenvalue GAMMA=   0.7073
  0.7073

 Free energy of the ion-electron system (eV)
  ---------------------------------------------------
  alpha Z        PSCENC =       256.96311714
  Ewald energy   TEWEN  =     -4474.15042185
  -Hartree energ DENC   =     -1251.78048025
  -exchange      EXHF   =         0.00000000
  -V(xc)+E(xc)   XCENC  =       175.78842051
  PAW double counting   =      5041.52833601    -5401.63328287
  entropy T*S    EENTRO =        -0.00000000
  eigenvalues    EBANDS =        62.73597657
  atomic energy  EATOM  =      5563.75431560
  Solvation  Ediel_sol  =         0.00000000
  ---------------------------------------------------
  free energy    TOTEN  =       -26.79401913 eV

  energy without entropy =      -26.79401913  energy(sigma->0) =      -26.79401913


--------------------------------------------------------------------------------------------------------




--------------------------------------- Iteration      2(   3)  ---------------------------------------


    POTLOK:  cpu time    0.0133: real time    0.0133
    SETDIJ:  cpu time    0.0030: real time    0.0030
    EDDIAG:  cpu time    0.0330: real time    0.0330
  RMM-DIIS:  cpu time    0.0957: real time    0.0957
    ORTHCH:  cpu time    0.0026: real time    0.0026
       DOS:  cpu time    0.0004: real time    0.0004
    CHARGE:  cpu time    0.0170: real time    0.0170
    MIXING:  cpu time    0.0005: real time    0.0005
    --------------------------------------------
      LOOP:  cpu time    0.1655: real time    0.1655

 eigenvalue-minimisations  :   523
 total energy-change (2. order) : 0.1149366E+02  (-0.1042985E+02)
 number of electron      43.9999800 magnetization 
 augmentation part       27.6021262 magnetization 

 Broyden mixing:
  rms(total) = 0.74480E+00    rms(broyden)= 0.74449E+00
  rms(prec ) = 0.12501E+01
  weight for this iteration     100.00

 eigenvalues of (default mixing * dielectric matrix)
  average eigenvalue GAMMA=   1.5977
  0.6215  2.5739

 Free energy of the ion-electron system (eV)
  ---------------------------------------------------
  alpha Z        PSCENC =       256.96311714
  Ewald energy   TEWEN  =     -4474.15042185
  -Hartree energ DENC   =     -1355.08555717
  -exchange      EXHF   =         0.00000000
  -V(xc)+E(xc)   XCENC  =       181.00576285
  PAW double counting   =      5194.85371614    -5611.96602683
  entropy T*S    EENTRO =        -0.00679318
  eigenvalues    EBANDS =       229.33152350
  atomic energy  EATOM  =      5563.75431560
  Solvation  Ediel_sol  =         0.00000000
  ---------------------------------------------------
  free energy    TOTEN  =       -15.30036380 eV

  energy without entropy =      -15.29357062  energy(sigma->0) =      -15.29696721


--------------------------------------------------------------------------------------------------------




--------------------------------------- Iteration      2(   4)  ---------------------------------------


    POTLOK:  cpu time    0.0133: real time    0.0133
    SETDIJ:  cpu time    0.0030: real time    0.0030
    EDDIAG:  cpu time    0.0291: real time    0.0291
  RMM-DIIS:  cpu time    0.0777: real time    0.0777
    ORTHCH:  cpu time    0.0022: real time    0.0022
       DOS:  cpu time    0.0003: real time    0.0003
    CHARGE:  cpu time    0.0130: real time    0.0130
    MIXING:  cpu time    0.0004: real time    0.0004
    --------------------------------------------
      LOOP:  cpu time    0.1390: real time    0.1390

 eigenvalue-minimisations  :   525
 total energy-change (2. order) : 0.4272671E+00  (-0.1439563E+00)
 number of electron      43.9999799 magnetization 
 augmentation part       27.9181307 magnetization 

 Broyden mixing:
  rms(total) = 0.45824E-01    rms(broyden)= 0.45748E-01
  rms(prec ) = 0.63850E-01
  weight for this iteration     100.00

 eigenvalues of (default mixing * dielectric matrix)
  average eigenvalue GAMMA=   1.4391
  0.6264  1.2142  2.4767

 Free energy of the ion-electron system (eV)
  ---------------------------------------------------
  alpha Z        PSCENC =       256.96311714
  Ewald energy   TEWEN  =     -4474.15042185
  -Hartree energ DENC   =     -1313.65659382
  -exchange      EXHF   =         0.00000000
  -V(xc)+E(xc)   XCENC  =       178.59502279
  PAW double counting   =      5291.97530744    -5734.74475139
  entropy T*S    EENTRO =        -0.00937101
  eigenvalues    EBANDS =       216.40027842
  atomic energy  EATOM  =      5563.75431560
  Solvation  Ediel_sol  =         0.00000000
  ---------------------------------------------------
  free energy    TOTEN  =       -14.87309668 eV

  energy without entropy =      -14.86372566  energy(sigma->0) =      -14.86841117


--------------------------------------------------------------------------------------------------------




--------------------------------------- Iteration      2(   5)  ---------------------------------------


    POTLOK:  cpu time    0.0102: real time    0.0102
    SETDIJ:  cpu time    0.0023: real time    0.0023
    EDDIAG:  cpu time    0.0270: real time    0.0270
  RMM-DIIS:  cpu time    0.0800: real time    0.0800
    ORTHCH:  cpu time    0.0021: real time    0.0021
       DOS:  cpu time    0.0004: real time    0.0004
    CHARGE:  cpu time    0.0126: real time    0.0126
    MIXING:  cpu time    0.0005: real time    0.0005
    --------------------------------------------
      LOOP:  cpu time    0.1350: real time    0.1350

 eigenvalue-minimisations  :   544
 total energy-change (2. order) : 0.1006095E-01  (-0.1963948E-01)
 number of electron      43.9999798 magnetization 
 augmentation part       28.0588829 magnetization 

 Broyden mixing:
  rms(total) = 0.67528E-01    rms(broyden)= 0.67518E-01
  rms(prec ) = 0.16612E+00
  weight for this iteration     100.00

 eigenvalues of (default mixing * dielectric matrix)
  average eigenvalue GAMMA=   1.9077
  0.6303  0.9672  3.4950  2.5384

 Free energy of the ion-electron system (eV)
  ---------------------------------------------------
  alpha Z        PSCENC =       256.96311714
  Ewald energy   TEWEN  =     -4474.15042185
  -Hartree energ DENC   =     -1315.45592908
  -exchange      EXHF   =         0.00000000
  -V(xc)+E(xc)   XCENC  =       178.66604763
  PAW double counting   =      5298.44551380    -5734.81041217
  entropy T*S    EENTRO =        -0.01006655
  eigenvalues    EBANDS =       211.73479975
  atomic energy  EATOM  =      5563.75431560
  Solvation  Ediel_sol  =         0.00000000
  ---------------------------------------------------
  free energy    TOTEN  =       -14.86303573 eV

  energy without entropy =      -14.85296918  energy(sigma->0) =      -14.85800245


--------------------------------------------------------------------------------------------------------




--------------------------------------- Iteration      2(   6)  ---------------------------------------


    POTLOK:  cpu time    0.0101: real time    0.0101
    SETDIJ:  cpu time    0.0023: real time    0.0023
    EDDIAG:  cpu time    0.0277: real time    0.0277
  RMM-DIIS:  cpu time    0.0784: real time    0.0784
    ORTHCH:  cpu time    0.0022: real time    0.0022
       DOS:  cpu time    0.0004: real time    0.0004
    CHARGE:  cpu time    0.0132: real time    0.0132
    MIXING:  cpu time    0.0005: real time    0.0005
    --------------------------------------------
      LOOP:  cpu time    0.1348: real time    0.1348

 eigenvalue-minimisations  :   527
 total energy-change (2. order) : 0.5066518E-02  (-0.1315143E-02)
 number of electron      43.9999798 magnetization 
 augmentation part       28.0101667 magnetization 

 Broyden mixing:
  rms(total) = 0.13676E-01    rms(broyden)= 0.13672E-01
  rms(prec ) = 0.23935E-01
  weight for this iteration     100.00

 eigenvalues of (default mixing * dielectric matrix)
  average eigenvalue GAMMA=   1.5400
  2.5737  2.2857  0.6299  0.9889  1.2219

 Free energy of the ion-electron system (eV)
  ---------------------------------------------------
  alpha Z        PSCENC =       256.96311714
  Ewald energy   TEWEN  =     -4474.15042185
  -Hartree energ DENC   =     -1325.04511633
  -exchange      EXHF   =         0.00000000
  -V(xc)+E(xc)   XCENC  =       179.07826315
  PAW double counting   =      5330.73908481    -5760.87221399
  entropy T*S    EENTRO =        -0.00959488
  eigenvalues    EBANDS =       214.68459714
  atomic energy  EATOM  =      5563.75431560
  Solvation  Ediel_sol  =         0.00000000
  ---------------------------------------------------
  free energy    TOTEN  =       -14.85796921 eV

  energy without entropy =      -14.84837434  energy(sigma->0) =      -14.85317177


--------------------------------------------------------------------------------------------------------




--------------------------------------- Iteration      2(   7)  ---------------------------------------


    POTLOK:  cpu time    0.0104: real time    0.0104
    SETDIJ:  cpu time    0.0024: real time    0.0024
    EDDIAG:  cpu time    0.0270: real time    0.0270
  RMM-DIIS:  cpu time    0.0777: real time    0.0777
    ORTHCH:  cpu time    0.0023: real time    0.0023
       DOS:  cpu time    0.0004: real time    0.0004
    CHARGE:  cpu time    0.0130: real time    0.0130
    MIXING:  cpu time    0.0005: real time    0.0005
    --------------------------------------------
      LOOP:  cpu time    0.1336: real time    0.1336

 eigenvalue-minimisations  :   529
 total energy-change (2. order) :-0.1809280E-03  (-0.1743036E-03)
 number of electron      43.9999798 magnetization 
 augmentation part       27.9995718 magnetization 

 Broyden mixing:
  rms(total) = 0.23713E-02    rms(broyden)= 0.23623E-02
  rms(prec ) = 0.49809E-02
  weight for this iteration     100.00

 eigenvalues of (default mixing * dielectric matrix)
  average eigenvalue GAMMA=   1.3065
  2.5669  2.2641  0.6299  0.9893  1.2626  0.1264

 Free energy of the ion-electron system (eV)
  ---------------------------------------------------
  alpha Z        PSCENC =       256.96311714
  Ewald energy   TEWEN  =     -4474.15042185
  -Hartree energ DENC   =     -1322.76609230
  -exchange      EXHF   =         0.00000000
  -V(xc)+E(xc)   XCENC  =       178.98660697
  PAW double counting   =      5319.95991004    -5752.51730901
  entropy T*S    EENTRO =        -0.00954622
  eigenvalues    EBANDS =       214.92126949
  atomic energy  EATOM  =      5563.75431560
  Solvation  Ediel_sol  =         0.00000000
  ---------------------------------------------------
  free energy    TOTEN  =       -14.85815014 eV

[...]
  (the norm of the test charge is              1.0000)
       1 -63.8376       2 -63.8376       3 -63.8376       4 -63.8376
 
 
 
 E-fermi :   7.1903     XC(G=0): -12.6574     alpha+bet :-13.2575


 k-point     1 :       0.0833    0.0833    0.0833
  band No.  band energies     occupation 
      1      -1.5790      2.00000
      2       2.6971      2.00000
      3       2.6971      2.00000
      4       2.6971      2.00000
      5       3.1328      2.00000
      6       3.1328      2.00000
      7       3.1328      2.00000
      8       4.3799      2.00000
      9       4.4763      2.00000
     10       4.4763      2.00000
     11       5.2252      2.00000
     12       5.2252      2.00000
     13       5.6330      2.00000
     14       5.6330      2.00000
     15       5.6330      2.00000
     16       5.6991      2.00000
     17       5.6991      2.00000
     18       5.6991      2.00000
     19       5.8944      2.00000
     20       5.8944      2.00000
     21       5.8944      2.00000
     22       8.8299      0.00000
     23       8.8299      0.00000
     24       8.8299      0.00000
     25      15.2191      0.00000
     26      15.2191      0.00000

 k-point     2 :       0.2500    0.0833    0.0833
  band No.  band energies     occupation 
      1      -0.9264      2.00000
      2       2.5941      2.00000
      3       2.9738      2.00000
      4       2.9738      2.00000
      5       3.2951      2.00000
      6       3.3104      2.00000
      7       3.3104      2.00000
      8       4.2169      2.00000
      9       4.6008      2.00000
     10       4.6059      2.00000
     11       4.9377      2.00000
     12       4.9377      2.00000
     13       5.0843      2.00000
     14       5.2398      2.00000
     15       5.3117      2.00000
     16       5.5030      2.00000
     17       5.5129      2.00000
     18       5.5129      2.00000
     19       5.7902      2.00000
     20       5.8751      2.00000
     21       5.8751      2.00000
     22       6.7251      2.00000
     23      10.0332      0.00000
     24      10.0332      0.00000
     25      15.5586      0.00000
     26      15.5585      0.00000

 k-point     3 :       0.4167    0.0833    0.0833
  band No.  band energies     occupation 
      1       0.2986      2.00000
      2       1.7734      2.00000
      3       3.3355      2.00000
      4       3.3355      2.00000
      5       3.5815      2.00000
      6       3.6537      2.00000
      7       3.6537      2.00000
      8       3.9192      2.00000
      9       4.2180      2.00000
     10       4.2180      2.00000
     11       4.6849      2.00000
     12       4.6976      2.00000
     13       4.8535      2.00000
     14       5.0797      2.00000
     15       5.1806      2.00000
     16       5.2476      2.00000
     17       5.2476      2.00000
     18       5.4609      2.00000
     19       5.5546      2.00000
     20       5.6340      2.00000
     21       5.8677      2.00000
     22       5.8677      2.00000
     23      11.7333      0.00000
     24      11.7333      0.00000
     25      13.8147      0.00000
     26      13.8147      0.00000

 k-point     4 :       0.2500    0.2500    0.0833
  band No.  band energies     occupation 
      1      -0.3015      2.00000
      2       2.9199      2.00000
      3       2.9199      2.00000
      4       3.1863      2.00000
      5       3.4343      2.00000
      6       3.4509      2.00000
      7       3.4509      2.00000
      8       4.1568      2.00000
      9       4.5756      2.00000
     10       4.5756      2.00000
     11       4.5996      2.00000
     12       4.6534      2.00000
     13       4.6558      2.00000
     14       5.0847      2.00000
     15       5.3205      2.00000
     16       5.3748      2.00000
     17       5.3748      2.00000
     18       5.3930      2.00000
     19       5.7456      2.00000
     20       5.7456      2.00000
     21       5.7668      2.00000
     22       7.7288      0.00000
     23       7.7288      0.00000
     24      10.9489      0.00000
     25      13.2845      0.00000
     26      16.0282      0.00000

 k-point     5 :       0.4167    0.2500    0.0833
  band No.  band energies     occupation 
      1       0.8550      2.00000
      2       2.2039      2.00000
      3       3.3652      2.00000
      4       3.4775      2.00000
      5       3.5993      2.00000
      6       3.6965      2.00000
      7       3.7089      2.00000
      8       3.9613      2.00000
      9       4.0543      2.00000
     10       4.2246      2.00000
     11       4.3624      2.00000
     12       4.5220      2.00000
     13       4.8137      2.00000
     14       5.0780      2.00000
     15       5.1303      2.00000
     16       5.1513      2.00000
     17       5.1761      2.00000
     18       5.4955      2.00000
     19       5.6799      2.00000
     20       5.6813      2.00000
     21       5.6880      2.00000
     22       6.2482      2.00000
     23       9.0678      0.00000
     24      10.7676      0.00000
     25      12.6842      0.00000
     26      14.5838      0.00000

 k-point     6 :       0.4167    0.4167    0.0833
  band No.  band energies     occupation 
      1       1.8256      2.00000
      2       2.8267      2.00000
      3       2.8267      2.00000
      4       3.2626      2.00000
      5       3.8957      2.00000
      6       3.9213      2.00000
      7       3.9213      2.00000
      8       3.9871      2.00000
      9       4.1224      2.00000
     10       4.1224      2.00000
     11       4.1510      2.00000
     12       4.3865      2.00000
     13       4.7958      2.00000
     14       4.9502      2.00000
     15       4.9539      2.00000
     16       4.9539      2.00000
     17       5.1566      2.00000
     18       5.4033      2.00000
     19       5.4033      2.00000
     20       5.4851      2.00000
     21       6.1984      2.00000
     22       7.1619      1.57754
     23       7.1619      1.57754
     24       8.5877      0.00000
     25      14.0596      0.00000
     26      15.9635      0.00000

 k-point     7 :       0.2500    0.2500    0.2500
  band No.  band energies     occupation 
      1       0.2756      2.00000
      2       3.0540      2.00000
      3       3.0540      2.00000
      4       3.0540      2.00000
      5       3.6155      2.00000
      6       3.6155      2.00000
      7       3.6155      2.00000
      8       4.1851      2.00000
      9       4.4559      2.00000
     10       4.4559      2.00000
     11       4.4559      2.00000
     12       4.5854      2.00000
     13       4.5854      2.00000
     14       5.0592      2.00000
     15       5.0592      2.00000
     16       5.0592      2.00000
     17       5.3213      2.00000
     18       5.3213      2.00000
     19       5.8340      2.00000
     20       5.8340      2.00000
     21       5.8340      2.00000
     22       8.3515      0.00000
     23       8.3515      0.00000
     24       8.3515      0.00000
     25      14.0711      0.00000
     26      14.0711      0.00000

 k-point     8 :       0.4167    0.2500    0.2500
  band No.  band energies     occupation 
      1       1.3050      2.00000
      2       2.4171      2.00000
      3       3.1556      2.00000
      4       3.1556      2.00000
      5       3.8332      2.00000
      6       3.8332      2.00000
      7       3.9258      2.00000
      8       4.1371      2.00000
      9       4.3556      2.00000
     10       4.3604      2.00000
     11       4.3604      2.00000
     12       4.4952      2.00000
     13       4.6223      2.00000
     14       4.7926      2.00000
     15       4.9002      2.00000
     16       4.9002      2.00000
     17       5.5036      2.00000
     18       5.5845      2.00000
     19       5.7593      2.00000
     20       5.7593      2.00000
     21       5.7749      2.00000
     22       6.4345      2.00000
     23       9.2782      0.00000
     24       9.2782      0.00000
     25      12.0059      0.00000
     26      12.0059      0.00000

 k-point     9 :       0.4167    0.4167    0.2500
  band No.  band energies     occupation 
      1       2.0075      2.00000
      2       2.6607      2.00000
      3       2.6607      2.00000
      4       2.8913      2.00000
      5       4.0903      2.00000
      6       4.1872      2.00000
      7       4.1872      2.00000
      8       4.4285      2.00000
      9       4.4561      2.00000
     10       4.4836      2.00000
     11       4.4836      2.00000
     12       4.5473      2.00000
     13       4.6013      2.00000
     14       4.6718      2.00000
     15       4.6718      2.00000
     16       4.6848      2.00000
     17       5.4819      2.00000
     18       5.6905      2.00000
     19       5.6905      2.00000
     20       5.6991      2.00000
     21       6.0270      2.00000
     22       7.1629      1.56084
     23       7.1629      1.56084
     24       8.4189      0.00000
     25      11.6852      0.00000
     26      13.1616      0.00000

 k-point    10 :       0.4167    0.4167    0.4167
  band No.  band energies     occupation 
      1       2.2503      2.00000
      2       2.5342      2.00000
      3       2.5342      2.00000
      4       2.5342      2.00000
      5       4.3180      2.00000
      6       4.3180      2.00000
      7       4.3180      2.00000
      8       4.4332      2.00000
      9       4.4332      2.00000
     10       4.4846      2.00000
     11       4.4846      2.00000
     12       4.4846      2.00000
     13       5.1433      2.00000
     14       5.1433      2.00000
     15       5.1433      2.00000
     16       5.4845      2.00000
     17       5.7208      2.00000
     18       5.7208      2.00000
     19       5.7998      2.00000
     20       5.7998      2.00000
     21       5.7998      2.00000
     22       7.1518      1.72323
     23       7.1518      1.72323
     24       7.1518      1.72323
     25      11.4103      0.00000
     26      11.4103      0.00000


--------------------------------------------------------------------------------------------------------


 soft charge-density along one line, spin component           1
         0         1         2         3         4         5         6         7         8         9
 total charge-density along one line
 
 pseudopotential strength for first ion, spin component:           1
 -3.009  -0.000   0.000  -0.000   0.000  -4.635   0.000  -0.000
 -0.000  -3.009   0.000  -0.000   0.000   0.000  -4.635  -0.000
  0.000   0.000  -2.992  -0.000  -0.000  -0.000  -0.000  -4.648
 -0.000  -0.000  -0.000  -3.009  -0.000   0.000   0.000   0.000
  0.000   0.000  -0.000  -0.000  -2.992  -0.000  -0.000   0.000
 -4.635   0.000  -0.000   0.000  -0.000  10.227  -0.000   0.000
  0.000  -4.635  -0.000   0.000  -0.000  -0.000  10.227  -0.000
 -0.000  -0.000  -4.648   0.000   0.000   0.000  -0.000  10.236
  0.000   0.000   0.000  -4.635   0.000  -0.000  -0.000  -0.000
 -0.000  -0.000   0.000   0.000  -4.648   0.000   0.000   0.000
  0.000   0.000   0.000   0.000   0.000   0.000   0.000   0.000
  0.000   0.000   0.000   0.000  -0.000   0.000   0.000   0.000
  0.000  -0.000   0.000   0.000   0.000  -0.000   0.000  -0.000
  0.000  -0.000  -0.000   0.000  -0.000   0.000   0.000   0.000
 -0.000   0.000  -0.000  -0.000   0.000  -0.000   0.000   0.000
  0.000  -0.000   0.000  -0.000   0.000   0.000   0.000   0.000
 -0.000  -0.000  -0.000   0.000   0.000   0.000  -0.000   0.000
 -0.000  -0.000  -0.000  -0.000   0.000  -0.000   0.000   0.000
 total augmentation occupancy for first ion, spin component:           1
  1.904  -0.000  -0.000  -0.000  -0.000  -0.017  -0.000   0.000   0.000   0.000  -0.000   0.000   0.000   0.000  -0.000  -0.000
 -0.000   1.904  -0.000   0.000  -0.000   0.000  -0.017  -0.000   0.000   0.000  -0.000  -0.000   0.000   0.000  -0.000   0.000
 -0.000   0.000   1.924   0.000  -0.000  -0.000  -0.000  -0.036   0.000   0.000   0.000   0.000   0.000  -0.000   0.000  -0.000
  0.000   0.000  -0.000   1.904  -0.000   0.000   0.000   0.000  -0.017  -0.000  -0.000   0.000  -0.000   0.000  -0.000  -0.000
  0.000   0.000  -0.000  -0.000   1.924  -0.000  -0.000  -0.000   0.000  -0.036  -0.000  -0.000   0.000  -0.000   0.000  -0.000
 -0.017   0.000   0.000   0.000   0.000   0.017  -0.000  -0.000   0.000   0.000   0.000   0.000  -0.000   0.000   0.000   0.000
 -0.000  -0.017   0.000   0.000  -0.000  -0.000   0.017  -0.000  -0.000   0.000   0.000   0.000   0.000  -0.000  -0.000   0.000
  0.000   0.000  -0.036   0.000   0.000  -0.000  -0.000   0.016  -0.000  -0.000   0.000  -0.000  -0.000   0.000  -0.000   0.000
 -0.000  -0.000   0.000  -0.017   0.000   0.000  -0.000  -0.000   0.017  -0.000   0.000   0.000   0.000  -0.000   0.000   0.000
 -0.000   0.000   0.000  -0.000  -0.036   0.000   0.000  -0.000  -0.000   0.016  -0.000  -0.000  -0.000   0.000   0.000   0.000
  0.000   0.000   0.000  -0.000   0.000   0.000  -0.000   0.000   0.000   0.000   1.775  -0.171   0.000   0.000   0.000   0.000
  0.000  -0.000  -0.000  -0.000  -0.000   0.000   0.000  -0.000   0.000  -0.000  -0.171   0.022   0.000   0.000   0.000   0.000
  0.000   0.000   0.000  -0.000  -0.000  -0.000   0.000   0.000   0.000   0.000   0.000   0.000   0.235   0.000  -0.000  -0.015
  0.000   0.000  -0.000   0.000   0.000   0.000  -0.000   0.000  -0.000  -0.000   0.000   0.000  -0.000   0.235  -0.000  -0.000
 -0.000  -0.000   0.000  -0.000   0.000   0.000  -0.000   0.000   0.000   0.000   0.000   0.000   0.000  -0.000   0.235   0.000
 -0.000   0.000   0.000  -0.000  -0.000   0.000   0.000  -0.000   0.000   0.000   0.000   0.000  -0.015  -0.000  -0.000   0.001
 -0.000   0.000   0.000  -0.000   0.000   0.000   0.000   0.000   0.000   0.000   0.000   0.000  -0.000  -0.015   0.000  -0.000
  0.000   0.000   0.000   0.000  -0.000   0.000  -0.000   0.000   0.000   0.000   0.000   0.000  -0.000  -0.000  -0.015   0.000


------------------------ aborting loop because EDIFF is reached ----------------------------------------


    CHARGE:  cpu time    0.0138: real time    0.0138
    FORLOC:  cpu time    0.0009: real time    0.0009
    FORNL :  cpu time    0.0283: real time    0.0283
    STRESS:  cpu time    0.0481: real time    0.0481
    FORCOR:  cpu time    0.0109: real time    0.0109
    FORHAR:  cpu time    0.0027: real time    0.0027
    MIXING:  cpu time    0.0005: real time    0.0005
    OFIELD:  cpu time    0.0000: real time    0.0000

  FORCE on cell =-STRESS in cart. coord.  units (eV):
  Direction    XX          YY          ZZ          XY          YZ          ZX
  --------------------------------------------------------------------------------------
  Alpha Z   244.61598   244.61598   244.61598
  Ewald   -1467.10387 -1467.10387 -1467.10387     0.00000    -0.00000     0.00000
  Hartree   454.63061   454.63061   454.63061    -0.00000    -0.00000    -0.00000
  E(xc)    -257.23515  -257.23515  -257.23515    -0.00000    -0.00000    -0.00000
  Local     371.68587   371.68587   371.68587    -0.00000     0.00000     0.00000
  n-local   -79.15144   -86.75527   -88.40911     0.63395     2.68127     1.43212
  augment   379.44167   379.44167   379.44167    -0.00000     0.00000     0.00000
  Kinetic   365.60391   358.15873   352.50508    -3.39799    -0.44208    -1.45461
  Fock        0.00000     0.00000     0.00000     0.00000     0.00000     0.00000
  -------------------------------------------------------------------------------------
  Total       0.01908     0.01908     0.01908     0.00000     0.00000    -0.00000
  in kB       0.63921     0.63921     0.63921     0.00000     0.00000    -0.00000
  external pressure =        0.64 kB  Pullay stress =        0.00 kB


 VOLUME and BASIS-vectors are now :
 -----------------------------------------------------------------------------
  energy-cutoff  :      300.00
  volume of cell :       47.84
      direct lattice vectors                 reciprocal lattice vectors
     3.630076631  0.000000000 -0.000000000     0.275476278  0.000000000 -0.000000000
    -0.000000000  3.630076631  0.000000000    -0.000000000  0.275476278  0.000000000
     0.000000000  0.000000000  3.630076631     0.000000000  0.000000000  0.275476278

  length of vectors
     3.630076631  3.630076631  3.630076631     0.275476278  0.275476278  0.275476278


 FORCES acting on ions
    electron-ion (+dipol)            ewald-force                    non-local-force                 convergence-correction
 -----------------------------------------------------------------------------------------------
   -.257E-13 -.488E-13 -.100E-12   0.879E-14 0.627E-14 -.446E-14   0.506E-22 0.794E-22 0.000E+00   0.215E-13 -.523E-13 -.147E-13
   -.264E-13 0.664E-12 0.621E-12   0.870E-14 -.196E-13 0.516E-14   -.540E-22 -.794E-22 0.000E+00   0.316E-13 -.397E-13 0.245E-13
   0.692E-12 -.592E-13 -.521E-11   -.770E-14 0.206E-13 0.513E-14   -.498E-22 -.794E-22 0.000E+00   0.155E-13 -.328E-13 0.476E-14
   0.694E-12 -.331E-11 -.487E-11   -.779E-14 -.521E-14 -.758E-14   0.528E-22 0.794E-22 0.000E+00   0.597E-15 -.710E-14 -.481E-13
 -----------------------------------------------------------------------------------------------
   0.133E-11 -.276E-11 -.956E-11   0.200E-14 0.211E-14 -.175E-14   -.340E-24 0.000E+00 0.000E+00   0.692E-13 -.132E-12 -.335E-13
 
 
 POSITION                                       TOTAL-FORCE (eV/Angst)
 -----------------------------------------------------------------------------------
      0.00000      0.00000     -0.00000        -0.000000     -0.000000     -0.000000
     -0.00000      1.81504      1.81504        -0.000000      0.000000      0.000000
      1.81504      0.00000      1.81504         0.000000      0.000000     -0.000000
      1.81504      1.81504     -0.00000        -0.000000     -0.000000     -0.000000
 -----------------------------------------------------------------------------------
    total drift:                                0.000000     -0.000000     -0.000000


--------------------------------------------------------------------------------------------------------



  FREE ENERGIE OF THE ION-ELECTRON SYSTEM (eV)
  ---------------------------------------------------
  free  energy   TOTEN  =       -14.91586677 eV

  energy  without entropy=      -14.90494008  energy(sigma->0) =      -14.91040342
 
 d Force = 0.0000000E+00[ 0.000E+00, 0.000E+00]  d Energy =-0.6625806E-04 0.663E-04
 d Force = 0.0000000E+00[ 0.000E+00, 0.000E+00]  d Ewald  = 0.6134500E+01-0.613E+01


--------------------------------------------------------------------------------------------------------


    POTLOK:  cpu time    0.0124: real time    0.0124


--------------------------------------------------------------------------------------------------------




--------------------------------------------------------------------------------------------------------


  
 reached required accuracy - stopping structural energy minimisation
     LOOP+:  cpu time    0.9990: real time    1.0762
    4ORBIT:  cpu time    0.0000: real time    0.0000

 total amount of memory used by VASP MPI-rank0    34102. kBytes
=======================================================================

   base      :      30000. kBytes
   nonl-proj :        496. kBytes
   fftplans  :       1169. kBytes
   grid      :       1645. kBytes
   one-center:         31. kBytes
   wavefun   :        761. kBytes
 
  
  
 General timing and accounting informations for this job:
 ========================================================
  
                  Total CPU time used (sec):        6.438
                            User time (sec):        6.207
                          System time (sec):        0.231
                         Elapsed time (sec):        7.146
  
                   Maximum memory used (kb):      166528.
                   Average memory used (kb):           0.
  
                          Minor page faults:        33941
                          Major page faults:            0
                 Voluntary context switches:         1128
