unknown system                          
           1
     3.800000    0.000000    0.000000
     0.000000    3.800000    0.000000
     0.000000    0.000000    3.800000
   Cu
   4
Direct configuration=     1
   0.00000000  0.00000000  0.00000000
   0.00000000  0.50000000  0.50000000
   0.50000000  0.00000000  0.50000000
   0.50000000  0.50000000  0.00000000
unknown system                          
           1
     3.570978    0.000000   -0.000000
    -0.000000    3.570978    0.000000
     0.000000    0.000000    3.570978
   Cu
   4
Direct configuration=     2
   0.00000000  0.00000000 -0.00000000
  -0.00000000  0.50000000  0.50000000
   0.50000000  0.00000000  0.50000000
   0.50000000  0.50000000 -0.00000000
unknown system                          
           1
     3.635143    0.000000   -0.000000
    -0.000000    3.635143    0.000000
     0.000000    0.000000    3.635143
   Cu
   4
Direct configuration=     3
   0.00000000  0.00000000 -0.00000000
  -0.00000000  0.50000000  0.50000000
   0.50000000  0.00000000  0.50000000
   0.50000000  0.50000000 -0.00000000
unknown system                          
           1
     3.630077    0.000000   -0.000000
    -0.000000    3.630077    0.000000
     0.000000    0.000000    3.630077
   Cu
   4
Direct configuration=     4
   0.00000000  0.00000000 -0.00000000
  -0.00000000  0.50000000  0.50000000
   0.50000000  0.00000000  0.50000000
   0.50000000  0.50000000 -0.00000000
