   4   4   0   0
  0.1852200E+02  0.4200000E-09  0.4200000E-09  0.4200000E-09  0.5000000E-15
  1.000000000000000E-004
  CAR 
 unknown system                          
     10.08786920     -3.72572787  301      3.15966152      1.00000000
     -3.726  0.0000E+00  0.0000E+00
     -3.680  0.0000E+00  0.0000E+00
     -3.634  0.0000E+00  0.0000E+00
     -3.588  0.0000E+00  0.0000E+00
     -3.542  0.0000E+00  0.0000E+00
     -3.496  0.0000E+00  0.0000E+00
     -3.449  0.0000E+00  0.0000E+00
     -3.403  0.0000E+00  0.0000E+00
     -3.357  0.1711E-12  0.7878E-14
     -3.311  0.1253E-08  0.5772E-10
     -3.265  0.1753E-05  0.8079E-07
     -3.219  0.4775E-03  0.2207E-04
     -3.173  0.2613E-01  0.1225E-02
     -3.127  0.3010E+00  0.1508E-01
     -3.081  0.7698E+00  0.5053E-01
     -3.035  0.4505E+00  0.7127E-01
     -2.989  0.5925E-01  0.7400E-01
     -2.943  0.1665E-02  0.7407E-01
     -2.897  0.9507E-05  0.7407E-01
     -2.851  0.1070E-07  0.7407E-01
     -2.805  0.1763E-06  0.7407E-01
     -2.759  0.1080E-03  0.7408E-01
     -2.713  0.1306E-01  0.7468E-01
     -2.667  0.3243E+00  0.8961E-01
     -2.621  0.1742E+01  0.1698E+00
     -2.575  0.2121E+01  0.2675E+00
     -2.529  0.5891E+00  0.2946E+00
     -2.483  0.3591E-01  0.2963E+00
     -2.436  0.4554E-03  0.2963E+00
     -2.390  0.1150E-05  0.2963E+00
     -2.344  0.4806E-07  0.2963E+00
     -2.298  0.3893E-04  0.2963E+00
     -2.252  0.6265E-02  0.2966E+00
     -2.206  0.2053E+00  0.3060E+00
     -2.160  0.1442E+01  0.3724E+00
     -2.114  0.2280E+01  0.4774E+00
     -2.068  0.8249E+00  0.5154E+00
     -2.022  0.6608E-01  0.5185E+00
     -1.976  0.1111E-02  0.5185E+00
     -1.930  0.3748E-05  0.5185E+00
     -1.884  0.3064E-06  0.5185E+00
     -1.838  0.1535E-03  0.5185E+00
     -1.792  0.1644E-01  0.5193E+00
     -1.746  0.3912E+00  0.5373E+00
     -1.700  0.2165E+01  0.6370E+00
     -1.654  0.2879E+01  0.7695E+00
     -1.608  0.9155E+00  0.8117E+00
     -1.562  0.6652E-01  0.8148E+00
     -1.516  0.1037E-02  0.8148E+00
     -1.470  0.3297E-05  0.8148E+00
     -1.423  0.1583E-04  0.8148E+00
     -1.377  0.3884E-02  0.8150E+00
     -1.331  0.1920E+00  0.8238E+00
     -1.285  0.2005E+01  0.9162E+00
     -1.239  0.4664E+01  0.1131E+01
     -1.193  0.2483E+01  0.1245E+01
     -1.147  0.2963E+00  0.1259E+01
     -1.101  0.7529E-02  0.1259E+01
     -1.055  0.5101E-04  0.1259E+01
     -1.009  0.2686E-02  0.1259E+01
     -0.963  0.1189E+00  0.1265E+01
     -0.917  0.1116E+01  0.1316E+01
     -0.871  0.2341E+01  0.1424E+01
     -0.825  0.1124E+01  0.1476E+01
     -0.779  0.1206E+00  0.1481E+01
     -0.733  0.2745E-02  0.1481E+01
     -0.687  0.1308E-04  0.1481E+01
     -0.641  0.2656E-03  0.1481E+01
     -0.595  0.3025E-01  0.1483E+01
     -0.549  0.7087E+00  0.1516E+01
     -0.503  0.3602E+01  0.1681E+01
     -0.457  0.4155E+01  0.1873E+01
     -0.410  0.1109E+01  0.1924E+01
     -0.364  0.4315E+00  0.1944E+01
     -0.318  0.1828E+01  0.2028E+01
     -0.272  0.2085E+01  0.2124E+01
     -0.226  0.1203E+01  0.2179E+01
     -0.180  0.3576E+01  0.2344E+01
     -0.134  0.4365E+01  0.2545E+01
     -0.088  0.1840E+01  0.2630E+01
     -0.042  0.1262E+01  0.2688E+01
      0.004  0.2234E+01  0.2791E+01
      0.050  0.1874E+01  0.2877E+01
      0.096  0.1354E+01  0.2939E+01
      0.142  0.3180E+01  0.3086E+01
      0.188  0.5777E+01  0.3352E+01
      0.234  0.7129E+01  0.3680E+01
      0.280  0.6647E+01  0.3986E+01
      0.326  0.7586E+01  0.4335E+01
      0.372  0.6083E+01  0.4615E+01
      0.418  0.5819E+01  0.4883E+01
      0.464  0.8878E+01  0.5292E+01
      0.510  0.1204E+02  0.5846E+01
      0.556  0.1172E+02  0.6386E+01
      0.603  0.1004E+02  0.6848E+01
      0.649  0.1205E+02  0.7403E+01
      0.695  0.1919E+02  0.8287E+01
      0.741  0.1998E+02  0.9207E+01
      0.787  0.1203E+02  0.9761E+01
      0.833  0.1580E+02  0.1049E+02
      0.879  0.1983E+02  0.1140E+02
      0.925  0.1262E+02  0.1198E+02
      0.971  0.1877E+02  0.1285E+02
      1.017  0.2422E+02  0.1396E+02
      1.063  0.2283E+02  0.1501E+02
      1.109  0.2688E+02  0.1625E+02
      1.155  0.2851E+02  0.1756E+02
      1.201  0.2846E+02  0.1887E+02
      1.247  0.3178E+02  0.2034E+02
      1.293  0.3665E+02  0.2202E+02
      1.339  0.3593E+02  0.2368E+02
      1.385  0.2908E+02  0.2502E+02
      1.431  0.2148E+02  0.2601E+02
      1.477  0.1928E+02  0.2689E+02
      1.523  0.2619E+02  0.2810E+02
      1.569  0.3261E+02  0.2960E+02
      1.616  0.2858E+02  0.3092E+02
      1.662  0.2548E+02  0.3209E+02
      1.708  0.2801E+02  0.3338E+02
      1.754  0.2932E+02  0.3473E+02
      1.800  0.2979E+02  0.3610E+02
      1.846  0.4245E+02  0.3806E+02
      1.892  0.4255E+02  0.4002E+02
      1.938  0.2582E+02  0.4121E+02
      1.984  0.9565E+01  0.4165E+02
      2.030  0.1831E+01  0.4173E+02
      2.076  0.2432E+01  0.4184E+02
      2.122  0.3687E+01  0.4201E+02
      2.168  0.5198E+01  0.4225E+02
      2.214  0.6145E+01  0.4253E+02
      2.260  0.2600E+01  0.4265E+02
      2.306  0.3932E+00  0.4267E+02
      2.352  0.1155E+01  0.4273E+02
      2.398  0.2341E+01  0.4283E+02
      2.444  0.1091E+01  0.4288E+02
      2.490  0.1136E+00  0.4289E+02
      2.536  0.2507E-02  0.4289E+02
      2.582  0.5255E-03  0.4289E+02
      2.629  0.3906E-01  0.4289E+02
      2.675  0.6186E+00  0.4292E+02
      2.721  0.2213E+01  0.4302E+02
      2.767  0.2824E+01  0.4315E+02
      2.813  0.4490E+01  0.4336E+02
      2.859  0.3578E+01  0.4352E+02
      2.905  0.8333E+00  0.4356E+02
      2.951  0.1761E+01  0.4364E+02
      2.997  0.4594E+01  0.4385E+02
      3.043  0.2787E+01  0.4398E+02
      3.089  0.3804E+00  0.4400E+02
      3.135  0.1111E-01  0.4400E+02
      3.181  0.1093E-03  0.4400E+02
      3.227  0.8172E-02  0.4400E+02
      3.273  0.3125E+00  0.4401E+02
      3.319  0.2559E+01  0.4413E+02
      3.365  0.4971E+01  0.4436E+02
      3.411  0.3675E+01  0.4453E+02
      3.457  0.2312E+01  0.4464E+02
      3.503  0.6031E+00  0.4466E+02
      3.549  0.3705E-01  0.4467E+02
      3.595  0.4762E-03  0.4467E+02
      3.642  0.2049E-05  0.4467E+02
      3.688  0.3549E-03  0.4467E+02
      3.734  0.3021E-01  0.4467E+02
      3.780  0.5342E+00  0.4469E+02
      3.826  0.2106E+01  0.4479E+02
      3.872  0.2464E+01  0.4490E+02
      3.918  0.2534E+01  0.4502E+02
      3.964  0.1683E+01  0.4510E+02
      4.010  0.2902E+00  0.4511E+02
      4.056  0.3539E-01  0.4511E+02
      4.102  0.4728E+00  0.4513E+02
      4.148  0.1989E+01  0.4523E+02
      4.194  0.1922E+01  0.4531E+02
      4.240  0.9077E+00  0.4536E+02
      4.286  0.3140E+01  0.4550E+02
      4.332  0.4459E+01  0.4571E+02
      4.378  0.1456E+01  0.4577E+02
      4.424  0.1050E+00  0.4578E+02
      4.470  0.1695E-02  0.4578E+02
      4.516  0.1341E-01  0.4578E+02
      4.562  0.3301E+00  0.4579E+02
      4.608  0.1807E+01  0.4588E+02
      4.655  0.3115E+01  0.4602E+02
      4.701  0.4631E+01  0.4623E+02
      4.747  0.3765E+01  0.4641E+02
      4.793  0.7807E+00  0.4644E+02
      4.839  0.3547E-01  0.4644E+02
      4.885  0.3322E-03  0.4644E+02
      4.931  0.6158E-06  0.4644E+02
      4.977  0.2202E-09  0.4644E+02
      5.023  0.1500E-13  0.4644E+02
      5.069  0.2736E-11  0.4644E+02
      5.115  0.1693E-07  0.4644E+02
      5.161  0.2003E-04  0.4644E+02
      5.207  0.4627E-02  0.4644E+02
      5.253  0.2156E+00  0.4645E+02
      5.299  0.2126E+01  0.4655E+02
      5.345  0.4678E+01  0.4677E+02
      5.391  0.2362E+01  0.4688E+02
      5.437  0.4299E+00  0.4690E+02
      5.483  0.1046E+01  0.4694E+02
      5.529  0.1493E+01  0.4701E+02
      5.575  0.7428E+00  0.4705E+02
      5.621  0.2355E+01  0.4716E+02
      5.668  0.4681E+01  0.4737E+02
      5.714  0.2168E+01  0.4747E+02
      5.760  0.4478E+00  0.4749E+02
      5.806  0.1506E+01  0.4756E+02
      5.852  0.2291E+01  0.4767E+02
      5.898  0.1348E+01  0.4773E+02
      5.944  0.2163E+01  0.4783E+02
      5.990  0.1767E+01  0.4791E+02
      6.036  0.3363E+00  0.4793E+02
      6.082  0.4845E-01  0.4793E+02
      6.128  0.7690E+00  0.4796E+02
      6.174  0.3711E+01  0.4813E+02
      6.220  0.4067E+01  0.4832E+02
      6.266  0.1015E+01  0.4837E+02
      6.312  0.5565E-01  0.4837E+02
      6.358  0.2820E-01  0.4837E+02
      6.404  0.6703E+00  0.4840E+02
      6.450  0.3528E+01  0.4856E+02
      6.496  0.4211E+01  0.4876E+02
      6.542  0.1146E+01  0.4881E+02
      6.588  0.6841E-01  0.4881E+02
      6.634  0.8489E-03  0.4881E+02
      6.681  0.2097E-05  0.4881E+02
      6.727  0.1003E-08  0.4881E+02
      6.773  0.1806E-09  0.4881E+02
      6.819  0.5242E-06  0.4881E+02
      6.865  0.2934E-03  0.4881E+02
      6.911  0.3248E-01  0.4882E+02
      6.957  0.7402E+00  0.4885E+02
      7.003  0.3660E+01  0.4902E+02
      7.049  0.4120E+01  0.4921E+02
      7.095  0.1355E+01  0.4927E+02
      7.141  0.1757E+01  0.4935E+02
      7.187  0.2151E+01  0.4945E+02
      7.233  0.6215E+00  0.4948E+02
      7.279  0.3955E-01  0.4948E+02
      7.325  0.1016E-01  0.4948E+02
      7.371  0.2690E+00  0.4949E+02
      7.417  0.1618E+01  0.4957E+02
      7.463  0.2199E+01  0.4967E+02
      7.509  0.6828E+00  0.4970E+02
      7.555  0.4672E-01  0.4970E+02
      7.601  0.6674E-03  0.4970E+02
      7.647  0.1904E-05  0.4970E+02
      7.694  0.2739E-07  0.4970E+02
      7.740  0.2841E-04  0.4970E+02
      7.786  0.5991E-02  0.4970E+02
      7.832  0.2555E+00  0.4972E+02
      7.878  0.2323E+01  0.4982E+02
      7.924  0.4943E+01  0.5005E+02
      7.970  0.3704E+01  0.5022E+02
      8.016  0.3293E+01  0.5037E+02
      8.062  0.2496E+01  0.5049E+02
      8.108  0.6353E+00  0.5052E+02
      8.154  0.3910E-01  0.5052E+02
      8.200  0.5118E-03  0.5052E+02
      8.246  0.1948E-03  0.5052E+02
      8.292  0.1757E-01  0.5052E+02
      8.338  0.3398E+00  0.5053E+02
      8.384  0.1740E+01  0.5062E+02
      8.430  0.4095E+01  0.5080E+02
      8.476  0.4841E+01  0.5103E+02
      8.522  0.1697E+01  0.5110E+02
      8.568  0.1702E+00  0.5111E+02
      8.614  0.7454E+00  0.5115E+02
      8.660  0.3666E+01  0.5132E+02
      8.707  0.4104E+01  0.5150E+02
      8.753  0.1047E+01  0.5155E+02
      8.799  0.5847E-01  0.5156E+02
      8.845  0.6771E-03  0.5156E+02
      8.891  0.1559E-05  0.5156E+02
      8.937  0.6941E-09  0.5156E+02
      8.983  0.1850E-11  0.5156E+02
      9.029  0.1057E-07  0.5156E+02
      9.075  0.1194E-04  0.5156E+02
      9.121  0.2635E-02  0.5156E+02
      9.167  0.1174E+00  0.5156E+02
      9.213  0.1109E+01  0.5161E+02
      9.259  0.2341E+01  0.5172E+02
      9.305  0.1131E+01  0.5177E+02
      9.351  0.1271E+00  0.5178E+02
      9.397  0.1805E+00  0.5179E+02
      9.443  0.1351E+01  0.5185E+02
      9.489  0.2309E+01  0.5195E+02
      9.535  0.9029E+00  0.5200E+02
      9.581  0.7838E-01  0.5200E+02
      9.627  0.1433E-02  0.5200E+02
      9.673  0.5260E-05  0.5200E+02
      9.720  0.3760E-08  0.5200E+02
      9.766  0.5133E-12  0.5200E+02
      9.812  0.0000E+00  0.5200E+02
      9.858  0.0000E+00  0.5200E+02
      9.904  0.0000E+00  0.5200E+02
      9.950  0.0000E+00  0.5200E+02
      9.996  0.0000E+00  0.5200E+02
     10.042  0.0000E+00  0.5200E+02
     10.088  0.0000E+00  0.5200E+02
