       N       E                     dE             d eps       ncg     rms          rms(c)
DAV:   1     0.280392159897E+03    0.28039E+03   -0.14200E+04   520   0.170E+03
DAV:   2     0.601789209507E+01   -0.27437E+03   -0.26853E+03   520   0.353E+02
DAV:   3    -0.141299813503E+02   -0.20148E+02   -0.19101E+02   596   0.135E+02
DAV:   4    -0.146779117467E+02   -0.54793E+00   -0.54324E+00   656   0.257E+01
DAV:   5    -0.146850825270E+02   -0.71708E-02   -0.71634E-02   620   0.209E+00    0.126E+01
RMM:   6    -0.144716211535E+02    0.21346E+00   -0.41327E+01   526   0.928E+01    0.100E+01
RMM:   7    -0.124170028106E+02    0.20546E+01   -0.83775E+00   521   0.470E+01    0.900E-01
RMM:   8    -0.124180211205E+02   -0.10183E-02   -0.37290E-01   526   0.862E+00    0.888E-01
RMM:   9    -0.124038221813E+02    0.14199E-01   -0.50291E-02   537   0.347E+00    0.908E-02
RMM:  10    -0.124039997688E+02   -0.17759E-03   -0.17394E-03   550   0.244E-01    0.737E-02
RMM:  11    -0.124039555257E+02    0.44243E-04   -0.40292E-04   537   0.283E-01    0.117E-02
RMM:  12    -0.124039499731E+02    0.55526E-05   -0.16724E-05   316   0.215E-02
   1 F= -.12403950E+02 E0= -.12403950E+02  d E =-.371484E-07
