   4   4   0   0
  0.1600000E+02  0.4000000E-09  0.4000000E-09  0.4000000E-09  0.5000000E-15
  1.000000000000000E-004
  CAR 
 unknown system                          
     12.03500823     -3.40578134  301      4.31679848      1.00000000
     -3.406  0.0000E+00  0.0000E+00
     -3.354  0.0000E+00  0.0000E+00
     -3.303  0.0000E+00  0.0000E+00
     -3.251  0.0000E+00  0.0000E+00
     -3.200  0.0000E+00  0.0000E+00
     -3.148  0.0000E+00  0.0000E+00
     -3.097  0.0000E+00  0.0000E+00
     -3.045  0.0000E+00  0.0000E+00
     -2.994  0.1598E-15  0.8224E-17
     -2.943  0.1068E-10  0.5495E-12
     -2.891  0.8624E-07  0.4439E-08
     -2.840  0.8919E-04  0.4595E-05
     -2.788  0.1230E-01  0.6374E-03
     -2.737  0.2425E+00  0.1312E-01
     -2.685  0.7550E+00  0.5198E-01
     -2.634  0.3954E+00  0.7233E-01
     -2.582  0.3350E-01  0.7405E-01
     -2.531  0.4165E-03  0.7407E-01
     -2.479  0.7012E-06  0.7407E-01
     -2.428  0.1531E-09  0.7407E-01
     -2.376  0.1056E-07  0.7407E-01
     -2.325  0.2390E-04  0.7408E-01
     -2.273  0.7079E-02  0.7444E-01
     -2.222  0.2907E+00  0.8940E-01
     -2.171  0.1813E+01  0.1827E+00
     -2.119  0.1876E+01  0.2793E+00
     -2.068  0.3224E+00  0.2959E+00
     -2.016  0.8450E-02  0.2963E+00
     -1.965  0.3080E-04  0.2963E+00
     -1.913  0.1471E-07  0.2963E+00
     -1.862  0.7794E-08  0.2963E+00
     -1.810  0.1893E-04  0.2963E+00
     -1.759  0.6012E-02  0.2966E+00
     -1.707  0.2640E+00  0.3102E+00
     -1.656  0.1754E+01  0.4005E+00
     -1.604  0.1930E+01  0.4998E+00
     -1.553  0.3534E+00  0.5180E+00
     -1.501  0.9901E-02  0.5185E+00
     -1.450  0.3868E-04  0.5185E+00
     -1.398  0.1989E-07  0.5185E+00
     -1.347  0.3253E-06  0.5185E+00
     -1.296  0.2890E-03  0.5185E+00
     -1.244  0.3778E-01  0.5205E+00
     -1.193  0.7889E+00  0.5611E+00
     -1.141  0.2852E+01  0.7079E+00
     -1.090  0.1864E+01  0.8038E+00
     -1.038  0.2105E+00  0.8146E+00
     -0.987  0.3684E-02  0.8148E+00
     -0.935  0.9043E-05  0.8148E+00
     -0.884  0.4624E-07  0.8148E+00
     -0.832  0.8271E-04  0.8148E+00
     -0.781  0.2074E-01  0.8159E+00
     -0.729  0.7258E+00  0.8532E+00
     -0.678  0.3891E+01  0.1053E+01
     -0.626  0.3474E+01  0.1232E+01
     -0.575  0.5129E+00  0.1259E+01
     -0.524  0.1145E-01  0.1259E+01
     -0.472  0.3560E-04  0.1259E+01
     -0.421  0.2759E-03  0.1259E+01
     -0.369  0.3764E-01  0.1261E+01
     -0.318  0.7352E+00  0.1299E+01
     -0.266  0.2268E+01  0.1416E+01
     -0.215  0.1177E+01  0.1476E+01
     -0.163  0.9874E-01  0.1481E+01
     -0.112  0.1215E-02  0.1481E+01
     -0.060  0.2078E-05  0.1481E+01
     -0.009  0.8967E-04  0.1481E+01
      0.043  0.2074E-01  0.1483E+01
      0.094  0.6990E+00  0.1519E+01
      0.146  0.3776E+01  0.1713E+01
      0.197  0.3547E+01  0.1895E+01
      0.249  0.5935E+00  0.1926E+01
      0.300  0.4805E+00  0.1951E+01
      0.351  0.2083E+01  0.2058E+01
      0.403  0.1595E+01  0.2140E+01
      0.454  0.1195E+01  0.2202E+01
      0.506  0.4258E+01  0.2421E+01
      0.557  0.3273E+01  0.2589E+01
      0.609  0.1161E+01  0.2649E+01
      0.660  0.1217E+01  0.2712E+01
      0.712  0.2325E+01  0.2831E+01
      0.763  0.1185E+01  0.2892E+01
      0.815  0.1493E+01  0.2969E+01
      0.866  0.3577E+01  0.3153E+01
      0.918  0.6806E+01  0.3503E+01
      0.969  0.5812E+01  0.3803E+01
      1.021  0.6321E+01  0.4128E+01
      1.072  0.6430E+01  0.4459E+01
      1.124  0.4755E+01  0.4704E+01
      1.175  0.6402E+01  0.5033E+01
      1.226  0.8109E+01  0.5450E+01
      1.278  0.8975E+01  0.5912E+01
      1.329  0.9356E+01  0.6394E+01
      1.381  0.8405E+01  0.6827E+01
      1.432  0.1034E+02  0.7359E+01
      1.484  0.1635E+02  0.8200E+01
      1.535  0.1709E+02  0.9080E+01
      1.587  0.1013E+02  0.9602E+01
      1.638  0.1023E+02  0.1013E+02
      1.690  0.1877E+02  0.1109E+02
      1.741  0.1187E+02  0.1171E+02
      1.793  0.7704E+01  0.1210E+02
      1.844  0.1811E+02  0.1303E+02
      1.896  0.1895E+02  0.1401E+02
      1.947  0.1557E+02  0.1481E+02
      1.998  0.2201E+02  0.1594E+02
      2.050  0.2314E+02  0.1713E+02
      2.101  0.1971E+02  0.1815E+02
      2.153  0.2317E+02  0.1934E+02
      2.204  0.2618E+02  0.2069E+02
      2.256  0.3249E+02  0.2236E+02
      2.307  0.2941E+02  0.2387E+02
      2.359  0.2110E+02  0.2496E+02
      2.410  0.1549E+02  0.2576E+02
      2.462  0.1452E+02  0.2651E+02
      2.513  0.1753E+02  0.2741E+02
      2.565  0.2247E+02  0.2856E+02
      2.616  0.2692E+02  0.2995E+02
      2.668  0.2261E+02  0.3111E+02
      2.719  0.1988E+02  0.3214E+02
      2.771  0.2025E+02  0.3318E+02
      2.822  0.2384E+02  0.3441E+02
      2.873  0.2225E+02  0.3555E+02
      2.925  0.2614E+02  0.3690E+02
      2.976  0.3910E+02  0.3891E+02
      3.028  0.2986E+02  0.4045E+02
      3.079  0.1824E+02  0.4138E+02
      3.131  0.6486E+01  0.4172E+02
      3.182  0.2357E+01  0.4184E+02
      3.234  0.2602E+01  0.4197E+02
      3.285  0.2589E+01  0.4211E+02
      3.337  0.4976E+01  0.4236E+02
      3.388  0.4758E+01  0.4261E+02
      3.440  0.1115E+01  0.4267E+02
      3.491  0.5471E+00  0.4269E+02
      3.543  0.2123E+01  0.4280E+02
      3.594  0.1495E+01  0.4288E+02
      3.646  0.1727E+00  0.4289E+02
      3.697  0.3003E-02  0.4289E+02
      3.748  0.8151E-02  0.4289E+02
      3.800  0.3156E+00  0.4291E+02
      3.851  0.1863E+01  0.4300E+02
      3.903  0.1827E+01  0.4310E+02
      3.954  0.3438E+00  0.4311E+02
      4.006  0.1149E+01  0.4317E+02
      4.057  0.4366E+01  0.4340E+02
      4.109  0.3199E+01  0.4356E+02
      4.160  0.3481E+01  0.4374E+02
      4.212  0.4119E+01  0.4395E+02
      4.263  0.8873E+00  0.4400E+02
      4.315  0.2963E-01  0.4400E+02
      4.366  0.1656E-01  0.4400E+02
      4.418  0.4706E+00  0.4403E+02
      4.469  0.2093E+01  0.4413E+02
      4.520  0.1875E+01  0.4423E+02
      4.572  0.3106E+01  0.4439E+02
      4.623  0.4293E+01  0.4461E+02
      4.675  0.1057E+01  0.4466E+02
      4.726  0.4054E-01  0.4467E+02
      4.778  0.2196E-03  0.4467E+02
      4.829  0.1574E-06  0.4467E+02
      4.881  0.2260E-09  0.4467E+02
      4.932  0.1149E-05  0.4467E+02
      4.984  0.8043E-03  0.4467E+02
      5.035  0.7582E-01  0.4467E+02
      5.087  0.1041E+01  0.4472E+02
      5.138  0.2306E+01  0.4484E+02
      5.190  0.1197E+01  0.4490E+02
      5.241  0.1967E+01  0.4501E+02
      5.293  0.1916E+01  0.4510E+02
      5.344  0.1659E+01  0.4519E+02
      5.395  0.2190E+01  0.4530E+02
      5.447  0.5763E+00  0.4533E+02
      5.498  0.2380E-01  0.4533E+02
      5.550  0.1382E-01  0.4533E+02
      5.601  0.5698E+00  0.4536E+02
      5.653  0.3602E+01  0.4555E+02
      5.704  0.3779E+01  0.4574E+02
      5.756  0.8711E+00  0.4579E+02
      5.807  0.1642E+01  0.4587E+02
      5.859  0.2035E+01  0.4598E+02
      5.910  0.4513E+00  0.4600E+02
      5.962  0.8294E+00  0.4604E+02
      6.013  0.4023E+01  0.4625E+02
      6.065  0.3312E+01  0.4642E+02
      6.116  0.4497E+00  0.4644E+02
      6.168  0.9188E-02  0.4644E+02
      6.219  0.2586E-04  0.4644E+02
      6.270  0.9490E-08  0.4644E+02
      6.322  0.4410E-12  0.4644E+02
      6.373  0.4793E-15  0.4644E+02
      6.425  0.4660E-10  0.4644E+02
      6.476  0.4018E-06  0.4644E+02
      6.528  0.4433E-03  0.4644E+02
      6.579  0.6507E-01  0.4645E+02
      6.631  0.1363E+01  0.4652E+02
      6.682  0.4492E+01  0.4675E+02
      6.734  0.2488E+01  0.4688E+02
      6.785  0.2236E+00  0.4689E+02
      6.837  0.2959E-02  0.4689E+02
      6.888  0.5312E-05  0.4689E+02
      6.940  0.9351E-06  0.4689E+02
      6.991  0.8302E-03  0.4689E+02
      7.042  0.9927E-01  0.4689E+02
      7.094  0.1749E+01  0.4698E+02
      7.145  0.5356E+01  0.4726E+02
      7.197  0.3620E+01  0.4745E+02
      7.248  0.6611E+00  0.4748E+02
      7.300  0.1031E+00  0.4749E+02
      7.351  0.1036E+01  0.4754E+02
      7.403  0.2406E+01  0.4766E+02
      7.454  0.2091E+01  0.4777E+02
      7.506  0.2301E+01  0.4789E+02
      7.557  0.6916E+00  0.4792E+02
      7.609  0.3343E-01  0.4793E+02
      7.660  0.2604E-03  0.4793E+02
      7.712  0.1010E-01  0.4793E+02
      7.763  0.4759E+00  0.4795E+02
      7.815  0.3382E+01  0.4813E+02
      7.866  0.3975E+01  0.4833E+02
      7.917  0.1173E+01  0.4839E+02
      7.969  0.3182E+01  0.4855E+02
      8.020  0.4136E+01  0.4877E+02
      8.072  0.9057E+00  0.4881E+02
      8.123  0.3065E-01  0.4881E+02
      8.175  0.1458E-03  0.4881E+02
      8.226  0.9141E-07  0.4881E+02
      8.278  0.7299E-11  0.4881E+02
      8.329  0.4314E-14  0.4881E+02
      8.381  0.2224E-09  0.4881E+02
      8.432  0.1385E-05  0.4881E+02
      8.484  0.1109E-02  0.4881E+02
      8.535  0.1192E+00  0.4882E+02
      8.587  0.1854E+01  0.4892E+02
      8.638  0.4605E+01  0.4915E+02
      8.690  0.1926E+01  0.4925E+02
      8.741  0.1327E+00  0.4926E+02
      8.792  0.2002E+00  0.4927E+02
      8.844  0.1581E+01  0.4935E+02
      8.895  0.2067E+01  0.4946E+02
      8.947  0.4516E+00  0.4948E+02
      8.998  0.1615E-01  0.4948E+02
      9.050  0.8154E-01  0.4949E+02
      9.101  0.1077E+01  0.4954E+02
      9.153  0.2291E+01  0.4966E+02
      9.204  0.8204E+00  0.4970E+02
      9.256  0.4664E-01  0.4970E+02
      9.307  0.3815E-03  0.4970E+02
      9.359  0.4172E-06  0.4970E+02
      9.410  0.6024E-07  0.4970E+02
      9.462  0.1062E-03  0.4970E+02
      9.513  0.2465E-01  0.4970E+02
      9.564  0.8011E+00  0.4975E+02
      9.616  0.4009E+01  0.4995E+02
      9.667  0.3601E+01  0.5014E+02
      9.719  0.2554E+01  0.5027E+02
      9.770  0.3516E+01  0.5045E+02
      9.822  0.1243E+01  0.5051E+02
      9.873  0.8164E-01  0.5052E+02
      9.925  0.8377E-03  0.5052E+02
      9.976  0.1191E-05  0.5052E+02
     10.028  0.1451E-05  0.5052E+02
     10.079  0.1147E-02  0.5052E+02
     10.131  0.1218E+00  0.5052E+02
     10.182  0.1874E+01  0.5062E+02
     10.234  0.4606E+01  0.5086E+02
     10.285  0.1946E+01  0.5096E+02
     10.337  0.7494E+00  0.5100E+02
     10.388  0.1536E+01  0.5108E+02
     10.439  0.6366E+00  0.5111E+02
     10.491  0.4223E-01  0.5111E+02
     10.542  0.4765E-03  0.5111E+02
     10.594  0.1855E-01  0.5111E+02
     10.645  0.6806E+00  0.5115E+02
     10.697  0.3815E+01  0.5134E+02
     10.748  0.3558E+01  0.5153E+02
     10.800  0.5496E+00  0.5155E+02
     10.851  0.1287E-01  0.5156E+02
     10.903  0.4171E-04  0.5156E+02
     10.954  0.3123E-07  0.5156E+02
     11.006  0.2893E-04  0.5156E+02
     11.057  0.8089E-02  0.5156E+02
     11.109  0.3143E+00  0.5157E+02
     11.160  0.1860E+01  0.5167E+02
     11.211  0.1830E+01  0.5176E+02
     11.263  0.3988E+00  0.5178E+02
     11.314  0.1193E+01  0.5184E+02
     11.366  0.2265E+01  0.5196E+02
     11.417  0.7276E+00  0.5200E+02
     11.469  0.3689E-01  0.5200E+02
     11.520  0.2676E-03  0.5200E+02
     11.572  0.2587E-06  0.5200E+02
     11.623  0.3203E-10  0.5200E+02
     11.675  0.4793E-15  0.5200E+02
     11.726  0.0000E+00  0.5200E+02
     11.778  0.0000E+00  0.5200E+02
     11.829  0.0000E+00  0.5200E+02
     11.881  0.0000E+00  0.5200E+02
     11.932  0.0000E+00  0.5200E+02
     11.984  0.0000E+00  0.5200E+02
     12.035  0.0000E+00  0.5200E+02
