    4    4    1    1
  0.1600000E+02  0.4000000E-09  0.4000000E-09  0.4000000E-09  0.5000000E-15
  1.000000000000000E-004
  CAR 
 unknown system                          
     44     10     26
 
  0.8333333E-01  0.8333333E-01  0.8333333E-01  0.3703704E-01
    1       -2.703927   1.000000
    2        1.029832   1.000000
    3        1.029832   1.000000
    4        1.029832   1.000000
    5        1.315653   1.000000
    6        1.315653   1.000000
    7        1.315653   1.000000
    8        2.103586   1.000000
    9        2.163064   1.000000
   10        2.163064   1.000000
   11        2.638508   1.000000
   12        2.638508   1.000000
   13        2.926281   1.000000
   14        2.926281   1.000000
   15        2.926281   1.000000
   16        2.943756   1.000000
   17        2.943756   1.000000
   18        2.943756   1.000000
   19        3.068132   1.000000
   20        3.068132   1.000000
   21        3.068132   1.000000
   22        5.813751   0.000000
   23        5.813751   0.000000
   24        5.813751   0.000000
   25       10.362561   0.000000
   26       10.362560   0.000000
 
  0.2500000E+00  0.8333333E-01  0.8333333E-01  0.1111111E+00
    1       -2.169539   1.000000
    2        0.915696   1.000000
    3        1.221948   1.000000
    4        1.221948   1.000000
    5        1.421143   1.000000
    6        1.433183   1.000000
    7        1.433183   1.000000
    8        2.003656   1.000000
    9        2.244632   1.000000
   10        2.247668   1.000000
   11        2.499365   1.000000
   12        2.499365   1.000000
   13        2.552685   1.000000
   14        2.686849   1.000000
   15        2.694381   1.000000
   16        2.822053   1.000000
   17        2.830870   1.000000
   18        2.830870   1.000000
   19        3.001121   1.000000
   20        3.056040   1.000000
   21        3.056040   1.000000
   22        3.850821   1.000000
   23        6.665112   0.000000
   24        6.665112   0.000000
   25       10.694765   0.000000
   26       10.694799   0.000000
 
  0.4166667E+00  0.8333333E-01  0.8333333E-01  0.1111111E+00
    1       -1.149608   1.000000
    2        0.137654   1.000000
    3        1.474628   1.000000
    4        1.474628   1.000000
    5        1.604499   1.000000
    6        1.659610   1.000000
    7        1.659610   1.000000
    8        1.817880   1.000000
    9        2.031010   1.000000
   10        2.031010   1.000000
   11        2.302822   1.000000
   12        2.319522   1.000000
   13        2.408005   1.000000
   14        2.553837   1.000000
   15        2.618547   1.000000
   16        2.663688   1.000000
   17        2.663688   1.000000
   18        2.790380   1.000000
   19        2.875805   1.000000
   20        2.900819   1.000000
   21        3.051597   1.000000
   22        3.051597   1.000000
   23        7.976746   0.000000
   24        7.976746   0.000000
   25        9.610685   0.000000
   26        9.610684   0.000000
 
  0.2500000E+00  0.2500000E+00  0.8333333E-01  0.1111111E+00
    1       -1.653066   1.000000
    2        1.154837   1.000000
    3        1.154837   1.000000
    4        1.352019   1.000000
    5        1.525743   1.000000
    6        1.525743   1.000000
    7        1.530199   1.000000
    8        1.970894   1.000000
    9        2.246726   1.000000
   10        2.252510   1.000000
   11        2.252510   1.000000
   12        2.277358   1.000000
   13        2.320766   1.000000
   14        2.554010   1.000000
   15        2.709248   1.000000
   16        2.746178   1.000000
   17        2.746178   1.000000
   18        2.748129   1.000000
   19        2.975415   1.000000
   20        2.975415   1.000000
   21        2.987399   1.000000
   22        4.583128   0.000000
   23        4.583128   0.000000
   24        7.374372   0.000000
   25        9.123087   0.000000
   26       11.159536   0.000000
 
  0.4166667E+00  0.2500000E+00  0.8333333E-01  0.2222222E+00
    1       -0.681194   1.000000
    2        0.495881   1.000000
    3        1.469243   1.000000
    4        1.525499   1.000000
    5        1.656050   1.000000
    6        1.682862   1.000000
    7        1.704628   1.000000
    8        1.849786   1.000000
    9        1.910977   1.000000
   10        2.037884   1.000000
   11        2.101845   1.000000
   12        2.202072   1.000000
   13        2.382428   1.000000
   14        2.554511   1.000000
   15        2.590400   1.000000
   16        2.599935   1.000000
   17        2.622060   1.000000
   18        2.821988   1.000000
   19        2.934464   1.000000
   20        2.935712   1.000000
   21        2.937984   1.000000
   22        3.348357   1.000000
   23        5.654170   0.000000
   24        7.122857   0.000000
   25        8.612849   0.000000
   26       10.208090   0.000000
 
  0.4166667E+00  0.4166667E+00  0.8333333E-01  0.1111111E+00
    1        0.149838   1.000000
    2        1.013268   1.000000
    3        1.013268   1.000000
    4        1.363738   1.000000
    5        1.838329   1.000000
    6        1.842825   1.000000
    7        1.842825   1.000000
    8        1.874731   1.000000
    9        1.955762   1.000000
   10        1.955762   1.000000
   11        1.992404   1.000000
   12        2.124405   1.000000
   13        2.373389   1.000000
   14        2.475005   1.000000
   15        2.478701   1.000000
   16        2.478701   1.000000
   17        2.600807   1.000000
   18        2.760109   1.000000
   19        2.760109   1.000000
   20        2.809269   1.000000
   21        3.292803   1.000000
   22        4.044376   1.000000
   23        4.044376   1.000000
   24        5.238809   0.000000
   25        9.747686   0.000000
   26       11.333154   0.000000
 
  0.2500000E+00  0.2500000E+00  0.2500000E+00  0.3703704E-01
    1       -1.167474   1.000000
    2        1.235072   1.000000
    3        1.235072   1.000000
    4        1.235072   1.000000
    5        1.654349   1.000000
    6        1.654349   1.000000
    7        1.654349   1.000000
    8        1.999398   1.000000
    9        2.176930   1.000000
   10        2.176930   1.000000
   11        2.176930   1.000000
   12        2.235332   1.000000
   13        2.235332   1.000000
   14        2.542276   1.000000
   15        2.542276   1.000000
   16        2.542276   1.000000
   17        2.703737   1.000000
   18        2.703737   1.000000
   19        3.029348   1.000000
   20        3.029348   1.000000
   21        3.029348   1.000000
   22        5.109523   0.000000
   23        5.109523   0.000000
   24        5.109523   0.000000
   25        9.718033   0.000000
   26        9.718033   0.000000
 
  0.4166667E+00  0.2500000E+00  0.2500000E+00  0.1111111E+00
    1       -0.285135   1.000000
    2        0.689020   1.000000
    3        1.293295   1.000000
    4        1.293295   1.000000
    5        1.800348   1.000000
    6        1.800348   1.000000
    7        1.855174   1.000000
    8        1.982031   1.000000
    9        2.095905   1.000000
   10        2.130972   1.000000
   11        2.130972   1.000000
   12        2.182259   1.000000
   13        2.260440   1.000000
   14        2.370661   1.000000
   15        2.443036   1.000000
   16        2.443036   1.000000
   17        2.833484   1.000000
   18        2.871050   1.000000
   19        2.982260   1.000000
   20        2.982260   1.000000
   21        2.991114   1.000000
   22        3.532425   1.000000
   23        6.007466   0.000000
   24        6.007466   0.000000
   25        7.819155   0.000000
   26        7.819155   0.000000
 
  0.4166667E+00  0.4166667E+00  0.2500000E+00  0.1111111E+00
    1        0.343077   1.000000
    2        0.906766   1.000000
    3        0.906766   1.000000
    4        1.094995   1.000000
    5        1.948275   1.000000
    6        2.008299   1.000000
    7        2.008299   1.000000
    8        2.138636   1.000000
    9        2.212866   1.000000
   10        2.224716   1.000000
   11        2.224716   1.000000
   12        2.233652   1.000000
   13        2.303278   1.000000
   14        2.304279   1.000000
   15        2.304279   1.000000
   16        2.317764   1.000000
   17        2.807171   1.000000
   18        2.941204   1.000000
   19        2.941204   1.000000
   20        2.944937   1.000000
   21        3.199380   1.000000
   22        4.167584   0.999988
   23        4.167584   0.999988
   24        5.357114   0.000000
   25        7.471679   0.000000
   26        8.851665   0.000000
 
  0.4166667E+00  0.4166667E+00  0.4166667E+00  0.3703704E-01
    1        0.587234   1.000000
    2        0.828373   1.000000
    3        0.828373   1.000000
    4        0.828373   1.000000
    5        2.074422   1.000000
    6        2.074422   1.000000
    7        2.074422   1.000000
    8        2.140461   1.000000
    9        2.140461   1.000000
   10        2.173509   1.000000
   11        2.173509   1.000000
   12        2.173509   1.000000
   13        2.682422   1.000000
   14        2.682422   1.000000
   15        2.682423   1.000000
   16        2.957513   1.000000
   17        2.957513   1.000000
   18        3.007927   1.000000
   19        3.007927   1.000000
   20        3.007927   1.000000
   21        3.137794   1.000000
   22        4.460392   0.000024
   23        4.460392   0.000024
   24        4.460392   0.000024
   25        7.165188   0.000000
   26        7.165188   0.000000
