 vasp.5.4.4.18Apr17-6-g9f103f2a35 (build Jan 01 2020 16:14:11) complex          
  
 executed on             LinuxIFC date 2022.03.02  19:16:08
 running on    4 total cores
 distrk:  each k-point on    4 cores,    1 groups
 distr:  one band on NCORES_PER_BAND=   2 cores,    2 groups


--------------------------------------------------------------------------------------------------------


 INCAR:
 POTCAR:    PAW_PBE Cu 22Jun2005                  
 POTCAR:    PAW_PBE Cu 22Jun2005                  
   VRHFIN =Cu: d10 p1                                                           
   LEXCH  = PE                                                                  
   EATOM  =  1390.9808 eV,  102.2342 Ry                                         
                                                                                
   TITEL  = PAW_PBE Cu 22Jun2005                                                
   LULTRA =        F    use ultrasoft PP ?                                      
   IUNSCR =        1    unscreen: 0-lin 1-nonlin 2-no                           
   RPACOR =    2.000    partial core radius                                     
   POMASS =   63.546; ZVAL   =   11.000    mass and valenz                      
   RCORE  =    2.300    outmost cutoff radius                                   
   RWIGS  =    2.200; RWIGS  =    1.164    wigner-seitz radius (au A)           
   ENMAX  =  295.446; ENMIN  =  221.585 eV                                      
   ICORE  =        3    local potential                                         
   LCOR   =        T    correct aug charges                                     
   LPAW   =        T    paw PP                                                  
   EAUG   =  586.980                                                            
   DEXC   =    0.000                                                            
   RMAX   =    2.344    core radius for proj-oper                               
   RAUG   =    1.300    factor for augmentation sphere                          
   RDEP   =    2.302    radius for radial grids                                 
   RDEPT  =    1.771    core radius for aug-charge                              
                                                                                
   Atomic configuration                                                         
    9 entries                                                                   
     n  l   j            E        occ.                                          
     1  0  0.50     -8850.2468   2.0000                                         
     2  0  0.50     -1062.3498   2.0000                                         
     2  1  1.50      -916.8226   6.0000                                         
     3  0  0.50      -114.6929   2.0000                                         
     3  1  1.50       -72.1325   6.0000                                         
     3  2  2.50        -5.0394  10.0000                                         
     4  0  0.50        -4.6097   1.0000                                         
     4  1  0.50        -4.0817   0.0000                                         
     4  3  2.50        -1.3606   0.0000                                         
   Description                                                                  
     l       E           TYP  RCUT    TYP  RCUT                                 
     2     -5.0393973     23  2.200                                             
     2     10.8846608     23  2.200                                             
     0     -4.6097109     23  2.200                                             
     0      8.2520465     23  2.200                                             
     1     -2.7211652     23  2.200                                             
     1     21.7055443     23  2.200                                             
     3      2.7211652     23  2.300                                             
  local pseudopotential read in
  partial core-charges read in
  partial kinetic energy density read in
  atomic valenz-charges read in
  non local Contribution for L=           2  read in
    real space projection operators read in
  non local Contribution for L=           2  read in
    real space projection operators read in
  non local Contribution for L=           0  read in
    real space projection operators read in
  non local Contribution for L=           0  read in
    real space projection operators read in
  non local Contribution for L=           1  read in
    real space projection operators read in
  non local Contribution for L=           1  read in
    real space projection operators read in
    PAW grid and wavefunctions read in
 
   number of l-projection  operators is LMAX  =           6
   number of lm-projection operators is LMMAX =          18
 
  PAW_PBE Cu 22Jun2005                  :
 energy of atom  1       EATOM=-1390.9808
 kinetic energy error for atom=    0.0422 (will be added to EATOM!!)
 
 
 POSCAR: Cu                                      
  positions in cartesian coordinates
  No initial velocities read in
 exchange correlation table for  LEXCH =        8
   RHO(1)=    0.500       N(1)  =     2000
   RHO(2)=  100.500       N(2)  =     4000
 


--------------------------------------------------------------------------------------------------------


 ion  position               nearest neighbor table
   1  0.000  0.000  0.000-
   2  0.000  0.500  0.500-
   3  0.500  0.000  0.500-
   4  0.500  0.500  0.000-
 
  LATTYP: Found a simple cubic cell.
 ALAT       =     4.0000000000
  
  Lattice vectors:
  
 A1 = (   4.0000000000,   0.0000000000,   0.0000000000)
 A2 = (   0.0000000000,   4.0000000000,   0.0000000000)
 A3 = (   0.0000000000,   0.0000000000,   4.0000000000)


Analysis of symmetry for initial positions (statically):
=====================================================================
 Subroutine PRICEL returns following result:
 
  LATTYP: Found a face centered cubic cell.
 ALAT       =     4.0000000000
  
  Lattice vectors:
  
 A1 = (   2.0000000000,   2.0000000000,   0.0000000000)
 A2 = (   2.0000000000,   0.0000000000,  -2.0000000000)
 A3 = (   0.0000000000,   2.0000000000,  -2.0000000000)
 
   4 primitive cells build up your supercell.
 

 Routine SETGRP: Setting up the symmetry group for a 
 simple cubic supercell.


 Subroutine GETGRP returns: Found 48 space group operations
 (whereof 48 operations were pure point group operations)
 out of a pool of 48 trial point group operations.


The static configuration has the point symmetry O_h .


Analysis of symmetry for dynamics (positions and initial velocities):
=====================================================================
 Subroutine PRICEL returns following result:
 
  LATTYP: Found a face centered cubic cell.
 ALAT       =     4.0000000000
  
  Lattice vectors:
  
 A1 = (   2.0000000000,   2.0000000000,   0.0000000000)
 A2 = (   2.0000000000,   0.0000000000,  -2.0000000000)
 A3 = (   0.0000000000,   2.0000000000,  -2.0000000000)
 
   4 primitive cells build up your supercell.
 

 Routine SETGRP: Setting up the symmetry group for a 
 simple cubic supercell.


 Subroutine GETGRP returns: Found 48 space group operations
 (whereof 48 operations were pure point group operations)
 out of a pool of 48 trial point group operations.


The dynamic configuration has the point symmetry O_h .


 Subroutine INISYM returns: Found 48 space group operations
 (whereof 48 operations are pure point group operations),
 and found     4 'primitive' translations

 
 
 KPOINTS: KPOINTS created by Atomic Simulation Env

Automatic generation of k-mesh.
Space group operators:
 irot       det(A)        alpha          n_x          n_y          n_z        tau_x        tau_y        tau_z
    1     1.000000     0.000000     1.000000     0.000000     0.000000     0.000000     0.000000     0.000000
    2    -1.000000     0.000000     1.000000     0.000000     0.000000     0.000000     0.000000     0.000000
    3     1.000000   120.000000    -0.577350    -0.577350    -0.577350     0.000000     0.000000     0.000000
    4    -1.000000   120.000000    -0.577350    -0.577350    -0.577350     0.000000     0.000000     0.000000
    5     1.000000   120.000000     0.577350     0.577350     0.577350     0.000000     0.000000     0.000000
    6    -1.000000   120.000000     0.577350     0.577350     0.577350     0.000000     0.000000     0.000000
    7     1.000000    90.000000     0.000000     0.000000    -1.000000     0.000000     0.000000     0.000000
    8    -1.000000    90.000000     0.000000     0.000000    -1.000000     0.000000     0.000000     0.000000
    9     1.000000   180.000000     0.000000     0.707107     0.707107     0.000000     0.000000     0.000000
   10    -1.000000   180.000000     0.000000     0.707107     0.707107     0.000000     0.000000     0.000000
   11     1.000000    90.000000     0.000000     1.000000     0.000000     0.000000     0.000000     0.000000
   12    -1.000000    90.000000     0.000000     1.000000     0.000000     0.000000     0.000000     0.000000
   13     1.000000   180.000000     0.000000     0.000000     1.000000     0.000000     0.000000     0.000000
   14    -1.000000   180.000000     0.000000     0.000000     1.000000     0.000000     0.000000     0.000000
   15     1.000000   120.000000    -0.577350     0.577350     0.577350     0.000000     0.000000     0.000000
   16    -1.000000   120.000000    -0.577350     0.577350     0.577350     0.000000     0.000000     0.000000
   17     1.000000   120.000000    -0.577350     0.577350    -0.577350     0.000000     0.000000     0.000000
   18    -1.000000   120.000000    -0.577350     0.577350    -0.577350     0.000000     0.000000     0.000000
   19     1.000000    90.000000     0.000000     0.000000     1.000000     0.000000     0.000000     0.000000
   20    -1.000000    90.000000     0.000000     0.000000     1.000000     0.000000     0.000000     0.000000
   21     1.000000    90.000000    -1.000000     0.000000     0.000000     0.000000     0.000000     0.000000
   22    -1.000000    90.000000    -1.000000     0.000000     0.000000     0.000000     0.000000     0.000000
   23     1.000000   180.000000     0.707107     0.000000     0.707107     0.000000     0.000000     0.000000
   24    -1.000000   180.000000     0.707107     0.000000     0.707107     0.000000     0.000000     0.000000
   25     1.000000   120.000000     0.577350    -0.577350     0.577350     0.000000     0.000000     0.000000
   26    -1.000000   120.000000     0.577350    -0.577350     0.577350     0.000000     0.000000     0.000000
   27     1.000000   120.000000    -0.577350    -0.577350     0.577350     0.000000     0.000000     0.000000
   28    -1.000000   120.000000    -0.577350    -0.577350     0.577350     0.000000     0.000000     0.000000
   29     1.000000   180.000000     1.000000     0.000000     0.000000     0.000000     0.000000     0.000000
   30    -1.000000   180.000000     1.000000     0.000000     0.000000     0.000000     0.000000     0.000000
   31     1.000000    90.000000     0.000000    -1.000000     0.000000     0.000000     0.000000     0.000000
   32    -1.000000    90.000000     0.000000    -1.000000     0.000000     0.000000     0.000000     0.000000
   33     1.000000   180.000000     0.707107     0.707107     0.000000     0.000000     0.000000     0.000000
   34    -1.000000   180.000000     0.707107     0.707107     0.000000     0.000000     0.000000     0.000000
   35     1.000000    90.000000     1.000000     0.000000     0.000000     0.000000     0.000000     0.000000
   36    -1.000000    90.000000     1.000000     0.000000     0.000000     0.000000     0.000000     0.000000
   37     1.000000   120.000000     0.577350    -0.577350    -0.577350     0.000000     0.000000     0.000000
   38    -1.000000   120.000000     0.577350    -0.577350    -0.577350     0.000000     0.000000     0.000000
   39     1.000000   180.000000     0.000000     1.000000     0.000000     0.000000     0.000000     0.000000
   40    -1.000000   180.000000     0.000000     1.000000     0.000000     0.000000     0.000000     0.000000
   41     1.000000   120.000000     0.577350     0.577350    -0.577350     0.000000     0.000000     0.000000
   42    -1.000000   120.000000     0.577350     0.577350    -0.577350     0.000000     0.000000     0.000000
   43     1.000000   180.000000     0.000000    -0.707107     0.707107     0.000000     0.000000     0.000000
   44    -1.000000   180.000000     0.000000    -0.707107     0.707107     0.000000     0.000000     0.000000
   45     1.000000   180.000000     0.707107    -0.707107     0.000000     0.000000     0.000000     0.000000
   46    -1.000000   180.000000     0.707107    -0.707107     0.000000     0.000000     0.000000     0.000000
   47     1.000000   180.000000     0.707107     0.000000    -0.707107     0.000000     0.000000     0.000000
   48    -1.000000   180.000000     0.707107     0.000000    -0.707107     0.000000     0.000000     0.000000
 
 Subroutine IBZKPT returns following result:
 ===========================================
 
 Found     10 irreducible k-points:
 
 Following reciprocal coordinates:
            Coordinates               Weight
  0.083333  0.083333  0.083333      8.000000
  0.250000  0.083333  0.083333     24.000000
  0.416667  0.083333  0.083333     24.000000
  0.250000  0.250000  0.083333     24.000000
  0.416667  0.250000  0.083333     48.000000
  0.416667  0.416667  0.083333     24.000000
  0.250000  0.250000  0.250000      8.000000
  0.416667  0.250000  0.250000     24.000000
  0.416667  0.416667  0.250000     24.000000
  0.416667  0.416667  0.416667      8.000000
 
 Following cartesian coordinates:
            Coordinates               Weight
  0.020833  0.020833  0.020833      8.000000
  0.062500  0.020833  0.020833     24.000000
  0.104167  0.020833  0.020833     24.000000
  0.062500  0.062500  0.020833     24.000000
  0.104167  0.062500  0.020833     48.000000
  0.104167  0.104167  0.020833     24.000000
  0.062500  0.062500  0.062500      8.000000
  0.104167  0.062500  0.062500     24.000000
  0.104167  0.104167  0.062500     24.000000
  0.104167  0.104167  0.104167      8.000000
 


--------------------------------------------------------------------------------------------------------




 Dimension of arrays:
   k-points           NKPTS =     10   k-points in BZ     NKDIM =     10   number of bands    NBANDS=     26
   number of dos      NEDOS =    301   number of ions     NIONS =      4
   non local maximal  LDIM  =      6   non local SUM 2l+1 LMDIM =     18
   total plane-waves  NPLWV =  13824
   max r-space proj   IRMAX =      1   max aug-charges    IRDMAX=   6455
   dimension x,y,z NGX =    24 NGY =   24 NGZ =   24
   dimension x,y,z NGXF=    48 NGYF=   48 NGZF=   48
   support grid    NGXF=    48 NGYF=   48 NGZF=   48
   ions per type =               4
   NGX,Y,Z   is equivalent  to a cutoff of   9.97,  9.97,  9.97 a.u.
   NGXF,Y,Z  is equivalent  to a cutoff of  19.95, 19.95, 19.95 a.u.

 SYSTEM =  unknown system                          
 POSCAR =  Cu                                      

 Startparameter for this run:
   NWRITE =      2    write-flag & timer
   PREC   = accura    normal or accurate (medium, high low for compatibility)
   ISTART =      0    job   : 0-new  1-cont  2-samecut
   ICHARG =      2    charge: 1-file 2-atom 10-const
   ISPIN  =      1    spin polarized calculation?
   LNONCOLLINEAR =      F non collinear calculations
   LSORBIT =      F    spin-orbit coupling
   INIWAV =      1    electr: 0-lowe 1-rand  2-diag
   LASPH  =      F    aspherical Exc in radial PAW
   METAGGA=      F    non-selfconsistent MetaGGA calc.

 Electronic Relaxation 1
   ENCUT  =  300.0 eV  22.05 Ry    4.70 a.u.   5.65  5.65  5.65*2*pi/ulx,y,z
   ENINI  =  300.0     initial cutoff
   ENAUG  =  587.0 eV  augmentation charge cutoff
   NELM   =    100;   NELMIN=  4; NELMDL= -5     # of ELM steps 
   EDIFF  = 0.1E-04   stopping-criterion for ELM
   LREAL  =      F    real-space projection
   NLSPLINE    = F    spline interpolate recip. space projectors
   LCOMPAT=      F    compatible to vasp.4.4
   GGA_COMPAT  = T    GGA compatible to vasp.4.4-vasp.4.6
   LMAXPAW     = -100 max onsite density
   LMAXMIX     =    2 max onsite mixed and CHGCAR
   VOSKOWN=      0    Vosko Wilk Nusair interpolation
   ROPT   =    0.00000
 Ionic relaxation
   EDIFFG = 0.1E-03   stopping-criterion for IOM
   NSW    =      0    number of steps for IOM
   NBLOCK =      1;   KBLOCK =      1    inner block; outer block 
   IBRION =     -1    ionic relax: 0-MD 1-quasi-New 2-CG
   NFREE  =      0    steps in history (QN), initial steepest desc. (CG)
   ISIF   =      2    stress and relaxation
   IWAVPR =     10    prediction:  0-non 1-charg 2-wave 3-comb
   ISYM   =      2    0-nonsym 1-usesym 2-fastsym
   LCORR  =      T    Harris-Foulkes like correction to forces

   POTIM  = 0.5000    time-step for ionic-motion
   TEIN   =    0.0    initial temperature
   TEBEG  =    0.0;   TEEND  =   0.0 temperature during run
   SMASS  =  -3.00    Nose mass-parameter (am)
   estimated Nose-frequenzy (Omega)   =  0.10E-29 period in steps =****** mass=  -0.366E-27a.u.
   SCALEE = 1.0000    scale energy and forces
   NPACO  =    256;   APACO  = 16.0  distance and # of slots for P.C.
   PSTRESS=    0.0 pullay stress

  Mass of Ions in am
   POMASS =  63.55
  Ionic Valenz
   ZVAL   =  11.00
  Atomic Wigner-Seitz radii
   RWIGS  =  -1.00
  virtual crystal weights 
   VCA    =   1.00
   NELECT =      44.0000    total number of electrons
   NUPDOWN=      -1.0000    fix difference up-down

 DOS related values:
   EMIN   =  10.00;   EMAX   =-10.00  energy-range for DOS
   EFERMI =   0.00
   ISMEAR =     0;   SIGMA  =   0.05  broadening in eV -4-tet -1-fermi 0-gaus

 Electronic relaxation 2 (details)
   IALGO  =     68    algorithm
   LDIAG  =      T    sub-space diagonalisation (order eigenvalues)
   LSUBROT=      F    optimize rotation matrix (better conditioning)
   TURBO    =      0    0=normal 1=particle mesh
   IRESTART =      0    0=no restart 2=restart with 2 vectors
   NREBOOT  =      0    no. of reboots
   NMIN     =      0    reboot dimension
   EREF     =   0.00    reference energy to select bands
   IMIX   =      4    mixing-type and parameters
     AMIX     =   0.40;   BMIX     =  1.00
     AMIX_MAG =   1.60;   BMIX_MAG =  1.00
     AMIN     =   0.10
     WC   =   100.;   INIMIX=   1;  MIXPRE=   1;  MAXMIX= -45

 Intra band minimization:
   WEIMIN = 0.0000     energy-eigenvalue tresh-hold
   EBREAK =  0.96E-07  absolut break condition
   DEPER  =   0.30     relativ break condition  

   TIME   =   0.40     timestep for ELM

  volume/ion in A,a.u.               =      16.00       107.97
  Fermi-wavevector in a.u.,A,eV,Ry     =   1.444882  2.730431 28.404667  2.087684
  Thomas-Fermi vector in A             =   2.563127
 
 Write flags
   LWAVE        =      F    write WAVECAR
   LDOWNSAMPLE  =      F    k-point downsampling of WAVECAR
   LCHARG       =      T    write CHGCAR
   LVTOT        =      F    write LOCPOT, total local potential
   LVHAR        =      F    write LOCPOT, Hartree potential only
   LELF         =      F    write electronic localiz. function (ELF)
   LORBIT       =      0    0 simple, 1 ext, 2 COOP (PROOUT), +10 PAW based schemes


 Dipole corrections
   LMONO  =      F    monopole corrections only (constant potential shift)
   LDIPOL =      F    correct potential (dipole corrections)
   IDIPOL =      0    1-x, 2-y, 3-z, 4-all directions 
   EPSILON=  1.0000000 bulk dielectric constant

 Exchange correlation treatment:
   GGA     =    PE    GGA type
   LEXCH   =     8    internal setting for exchange type
   VOSKOWN=      0    Vosko Wilk Nusair interpolation
   LHFCALC =     F    Hartree Fock is set to
   LHFONE  =     F    Hartree Fock one center treatment
   AEXX    =    0.0000 exact exchange contribution

 Linear response parameters
   LEPSILON=     F    determine dielectric tensor
   LRPA    =     F    only Hartree local field effects (RPA)
   LNABLA  =     F    use nabla operator in PAW spheres
   LVEL    =     F    velocity operator in full k-point grid
   LINTERFAST=   F  fast interpolation
   KINTER  =     0    interpolate to denser k-point grid
   CSHIFT  =0.1000    complex shift for real part using Kramers Kronig
   OMEGAMAX=  -1.0    maximum frequency
   DEG_THRESHOLD= 0.2000000E-02 threshold for treating states as degnerate
   RTIME   =   -0.100 relaxation time in fs
  (WPLASMAI=    0.000 imaginary part of plasma frequency in eV, 0.658/RTIME)
   DFIELD  = 0.0000000 0.0000000 0.0000000 field for delta impulse in time
 
 Orbital magnetization related:
   ORBITALMAG=     F  switch on orbital magnetization
   LCHIMAG   =     F  perturbation theory with respect to B field
   DQ        =  0.001000  dq finite difference perturbation B field
   LLRAUG    =     F  two centre corrections for induced B field



--------------------------------------------------------------------------------------------------------


 Static calculation
 charge density and potential will be updated during run
 non-spin polarized calculation
 RMM-DIIS sequential band-by-band and
  variant of blocked Davidson during initial phase
 perform sub-space diagonalisation
    before iterative eigenvector-optimisation
 modified Broyden-mixing scheme, WC =      100.0
 initial mixing is a Kerker type mixing with AMIX =  0.4000 and BMIX =      1.0000
 Hartree-type preconditioning will be used
 using additional bands            4
 reciprocal scheme for non local part
 use partial core corrections
 calculate Harris-corrections to forces 
   (improved forces if not selfconsistent)
 use gradient corrections 
 use of overlap-Matrix (Vanderbilt PP)
 Gauss-broadening in eV      SIGMA  =   0.05


--------------------------------------------------------------------------------------------------------


  energy-cutoff  :      300.00
  volume of cell :       64.00
      direct lattice vectors                 reciprocal lattice vectors
     4.000000000  0.000000000  0.000000000     0.250000000  0.000000000  0.000000000
     0.000000000  4.000000000  0.000000000     0.000000000  0.250000000  0.000000000
     0.000000000  0.000000000  4.000000000     0.000000000  0.000000000  0.250000000

  length of vectors
     4.000000000  4.000000000  4.000000000     0.250000000  0.250000000  0.250000000


 
 k-points in units of 2pi/SCALE and weight: KPOINTS created by Atomic Simulation Env
   0.02083333  0.02083333  0.02083333       0.037
   0.06250000  0.02083333  0.02083333       0.111
   0.10416667  0.02083333  0.02083333       0.111
   0.06250000  0.06250000  0.02083333       0.111
   0.10416667  0.06250000  0.02083333       0.222
   0.10416667  0.10416667  0.02083333       0.111
   0.06250000  0.06250000  0.06250000       0.037
   0.10416667  0.06250000  0.06250000       0.111
   0.10416667  0.10416667  0.06250000       0.111
   0.10416667  0.10416667  0.10416667       0.037
 
 k-points in reciprocal lattice and weights: KPOINTS created by Atomic Simulation Env
   0.08333333  0.08333333  0.08333333       0.037
   0.25000000  0.08333333  0.08333333       0.111
   0.41666667  0.08333333  0.08333333       0.111
   0.25000000  0.25000000  0.08333333       0.111
   0.41666667  0.25000000  0.08333333       0.222
   0.41666667  0.41666667  0.08333333       0.111
   0.25000000  0.25000000  0.25000000       0.037
   0.41666667  0.25000000  0.25000000       0.111
   0.41666667  0.41666667  0.25000000       0.111
   0.41666667  0.41666667  0.41666667       0.037
 
 position of ions in fractional coordinates (direct lattice) 
   0.00000000  0.00000000  0.00000000
   0.00000000  0.50000000  0.50000000
   0.50000000  0.00000000  0.50000000
   0.50000000  0.50000000  0.00000000
 
 position of ions in cartesian coordinates  (Angst):
   0.00000000  0.00000000  0.00000000
   0.00000000  2.00000000  2.00000000
   2.00000000  0.00000000  2.00000000
   2.00000000  2.00000000  0.00000000
 


--------------------------------------------------------------------------------------------------------


 k-point  1 :   0.0833 0.0833 0.0833  plane waves:     751
 k-point  2 :   0.2500 0.0833 0.0833  plane waves:     760
 k-point  3 :   0.4167 0.0833 0.0833  plane waves:     760
 k-point  4 :   0.2500 0.2500 0.0833  plane waves:     754
 k-point  5 :   0.4167 0.2500 0.0833  plane waves:     759
 k-point  6 :   0.4167 0.4167 0.0833  plane waves:     751
 k-point  7 :   0.2500 0.2500 0.2500  plane waves:     751
 k-point  8 :   0.4167 0.2500 0.2500  plane waves:     755
 k-point  9 :   0.4167 0.4167 0.2500  plane waves:     756
 k-point 10 :   0.4167 0.4167 0.4167  plane waves:     744

 maximum and minimum number of plane-waves per node :       389      366

 maximum number of plane-waves:       760
 maximum index in each direction: 
   IXMAX=    5   IYMAX=    5   IZMAX=    5
   IXMIN=   -6   IYMIN=   -6   IZMIN=   -6


 parallel 3D FFT for wavefunctions:
    minimum data exchange during FFTs selected (reduces bandwidth)
 parallel 3D FFT for charge:
    minimum data exchange during FFTs selected (reduces bandwidth)


 total amount of memory used by VASP MPI-rank0    34318. kBytes
=======================================================================

   base      :      30000. kBytes
   nonl-proj :        586. kBytes
   fftplans  :       1170. kBytes
   grid      :       1645. kBytes
   one-center:         31. kBytes
   wavefun   :        886. kBytes
 
     INWAV:  cpu time    0.0000: real time    0.0000
 Broyden mixing: mesh for mixing (old mesh)
   NGX = 11   NGY = 11   NGZ = 11
  (NGX  = 48   NGY  = 48   NGZ  = 48)
  gives a total of   1331 points

 initial charge density was supplied:
 charge density of overlapping atoms calculated
 number of electron      44.0000000 magnetization 
 keeping initial charge density in first step


--------------------------------------------------------------------------------------------------------


 Maximum index for augmentation-charges         1497 (set IRDMAX)


--------------------------------------------------------------------------------------------------------


 First call to EWALD:  gamma=   0.443
 Maximum number of real-space cells 3x 3x 3
 Maximum number of reciprocal cells 3x 3x 3

    FEWALD:  cpu time    0.0022: real time    0.0022


--------------------------------------- Iteration      1(   1)  ---------------------------------------


    POTLOK:  cpu time    0.0238: real time    0.0735
    SETDIJ:  cpu time    0.0039: real time    0.0039
     EDDAV:  cpu time    0.1481: real time    0.1483
       DOS:  cpu time    0.0010: real time    0.0010
    --------------------------------------------
      LOOP:  cpu time    0.1769: real time    0.2267

 eigenvalue-minimisations  :   520
 total energy-change (2. order) : 0.2866149E+03  (-0.1440828E+04)
 number of electron      44.0000000 magnetization 
 augmentation part       44.0000000 magnetization 

 Free energy of the ion-electron system (eV)
  ---------------------------------------------------
  alpha Z        PSCENC =       182.83200925
  Ewald energy   TEWEN  =     -3994.27284481
  -Hartree energ DENC   =     -1688.53753061
  -exchange      EXHF   =         0.00000000
  -V(xc)+E(xc)   XCENC  =       180.25472899
  PAW double counting   =      4912.82663951    -5336.19386850
  entropy T*S    EENTRO =        -0.00720802
  eigenvalues    EBANDS =       465.95870125
  atomic energy  EATOM  =      5563.75431560
  Solvation  Ediel_sol  =         0.00000000
  ---------------------------------------------------
  free energy    TOTEN  =       286.61494267 eV

  energy without entropy =      286.62215068  energy(sigma->0) =      286.61854668


--------------------------------------------------------------------------------------------------------




--------------------------------------- Iteration      1(   2)  ---------------------------------------


     EDDAV:  cpu time    0.1369: real time    0.1369
       DOS:  cpu time    0.0005: real time    0.0005
    --------------------------------------------
      LOOP:  cpu time    0.1374: real time    0.1374

 eigenvalue-minimisations  :   520
 total energy-change (2. order) :-0.2819552E+03  (-0.2760849E+03)
 number of electron      44.0000000 magnetization 
 augmentation part       44.0000000 magnetization 

 Free energy of the ion-electron system (eV)
  ---------------------------------------------------
  alpha Z        PSCENC =       182.83200925
  Ewald energy   TEWEN  =     -3994.27284481
  -Hartree energ DENC   =     -1688.53753061
  -exchange      EXHF   =         0.00000000
  -V(xc)+E(xc)   XCENC  =       180.25472899
  PAW double counting   =      4912.82663951    -5336.19386850
  entropy T*S    EENTRO =        -0.00952382
  eigenvalues    EBANDS =       184.00582337
  atomic energy  EATOM  =      5563.75431560
  Solvation  Ediel_sol  =         0.00000000
  ---------------------------------------------------
  free energy    TOTEN  =         4.65974898 eV

  energy without entropy =        4.66927280  energy(sigma->0) =        4.66451089


--------------------------------------------------------------------------------------------------------




--------------------------------------- Iteration      1(   3)  ---------------------------------------


     EDDAV:  cpu time    0.1474: real time    0.1474
       DOS:  cpu time    0.0005: real time    0.0005
    --------------------------------------------
      LOOP:  cpu time    0.1479: real time    0.1479

 eigenvalue-minimisations  :   586
 total energy-change (2. order) :-0.2040425E+02  (-0.1957587E+02)
 number of electron      44.0000000 magnetization 
 augmentation part       44.0000000 magnetization 

 Free energy of the ion-electron system (eV)
  ---------------------------------------------------
  alpha Z        PSCENC =       182.83200925
  Ewald energy   TEWEN  =     -3994.27284481
  -Hartree energ DENC   =     -1688.53753061
  -exchange      EXHF   =         0.00000000
  -V(xc)+E(xc)   XCENC  =       180.25472899
  PAW double counting   =      4912.82663951    -5336.19386850
  entropy T*S    EENTRO =        -0.00014772
  eigenvalues    EBANDS =       163.59220049
  atomic energy  EATOM  =      5563.75431560
  Solvation  Ediel_sol  =         0.00000000
  ---------------------------------------------------
  free energy    TOTEN  =       -15.74449780 eV

  energy without entropy =      -15.74435008  energy(sigma->0) =      -15.74442394


--------------------------------------------------------------------------------------------------------




--------------------------------------- Iteration      1(   4)  ---------------------------------------


     EDDAV:  cpu time    0.1456: real time    0.1456
       DOS:  cpu time    0.0004: real time    0.0004
    --------------------------------------------
      LOOP:  cpu time    0.1460: real time    0.1460

 eigenvalue-minimisations  :   672
 total energy-change (2. order) :-0.6879832E+00  (-0.6644292E+00)
 number of electron      44.0000000 magnetization 
 augmentation part       44.0000000 magnetization 

 Free energy of the ion-electron system (eV)
  ---------------------------------------------------
  alpha Z        PSCENC =       182.83200925
  Ewald energy   TEWEN  =     -3994.27284481
  -Hartree energ DENC   =     -1688.53753061
  -exchange      EXHF   =         0.00000000
  -V(xc)+E(xc)   XCENC  =       180.25472899
  PAW double counting   =      4912.82663951    -5336.19386850
  entropy T*S    EENTRO =        -0.00788207
  eigenvalues    EBANDS =       162.91195161
  atomic energy  EATOM  =      5563.75431560
  Solvation  Ediel_sol  =         0.00000000
  ---------------------------------------------------
  free energy    TOTEN  =       -16.43248103 eV

  energy without entropy =      -16.42459895  energy(sigma->0) =      -16.42853999


--------------------------------------------------------------------------------------------------------




--------------------------------------- Iteration      1(   5)  ---------------------------------------


     EDDAV:  cpu time    0.1269: real time    0.1269
       DOS:  cpu time    0.0004: real time    0.0004
    CHARGE:  cpu time    0.0152: real time    0.0152
    MIXING:  cpu time    0.0006: real time    0.0006
    --------------------------------------------
      LOOP:  cpu time    0.1431: real time    0.1432

 eigenvalue-minimisations  :   596
 total energy-change (2. order) :-0.8618866E-02  (-0.8608596E-02)
 number of electron      44.0000301 magnetization 
 augmentation part       26.2273603 magnetization 

 Broyden mixing:
  rms(total) = 0.13775E+01    rms(broyden)= 0.13772E+01
  rms(prec ) = 0.31206E+01
  weight for this iteration     100.00

 Free energy of the ion-electron system (eV)
  ---------------------------------------------------
  alpha Z        PSCENC =       182.83200925
  Ewald energy   TEWEN  =     -3994.27284481
  -Hartree energ DENC   =     -1688.53753061
  -exchange      EXHF   =         0.00000000
  -V(xc)+E(xc)   XCENC  =       180.25472899
  PAW double counting   =      4912.82663951    -5336.19386850
  entropy T*S    EENTRO =        -0.00781980
  eigenvalues    EBANDS =       162.90327047
  atomic energy  EATOM  =      5563.75431560
  Solvation  Ediel_sol  =         0.00000000
  ---------------------------------------------------
  free energy    TOTEN  =       -16.44109989 eV

  energy without entropy =      -16.43328010  energy(sigma->0) =      -16.43718999


--------------------------------------------------------------------------------------------------------




--------------------------------------- Iteration      1(   6)  ---------------------------------------


    POTLOK:  cpu time    0.0118: real time    0.0118
    SETDIJ:  cpu time    0.0030: real time    0.0030
    EDDIAG:  cpu time    0.0299: real time    0.0299
  RMM-DIIS:  cpu time    0.0870: real time    0.0870
    ORTHCH:  cpu time    0.0025: real time    0.0025
       DOS:  cpu time    0.0003: real time    0.0003
    CHARGE:  cpu time    0.0147: real time    0.0147
    MIXING:  cpu time    0.0006: real time    0.0006
    --------------------------------------------
      LOOP:  cpu time    0.1498: real time    0.1498

 eigenvalue-minimisations  :   532
 total energy-change (2. order) : 0.7465321E+00  (-0.4439181E+01)
 number of electron      44.0000331 magnetization 
 augmentation part       29.7847199 magnetization 

 Broyden mixing:
  rms(total) = 0.99893E+00    rms(broyden)= 0.99840E+00
  rms(prec ) = 0.20303E+01
  weight for this iteration     100.00

 eigenvalues of (default mixing * dielectric matrix)
  average eigenvalue GAMMA=   0.5787
  0.5787

 Free energy of the ion-electron system (eV)
  ---------------------------------------------------
  alpha Z        PSCENC =       182.83200925
  Ewald energy   TEWEN  =     -3994.27284481
  -Hartree energ DENC   =     -1575.16886111
  -exchange      EXHF   =         0.00000000
  -V(xc)+E(xc)   XCENC  =       174.83205218
  PAW double counting   =      4836.81563734    -5236.28485506
  entropy T*S    EENTRO =        -0.00000000
  eigenvalues    EBANDS =        31.79797884
  atomic energy  EATOM  =      5563.75431560
  Solvation  Ediel_sol  =         0.00000000
  ---------------------------------------------------
  free energy    TOTEN  =       -15.69456775 eV

  energy without entropy =      -15.69456775  energy(sigma->0) =      -15.69456775


--------------------------------------------------------------------------------------------------------




--------------------------------------- Iteration      1(   7)  ---------------------------------------


    POTLOK:  cpu time    0.0115: real time    0.0115
    SETDIJ:  cpu time    0.0023: real time    0.0023
    EDDIAG:  cpu time    0.0298: real time    0.0298
  RMM-DIIS:  cpu time    0.0854: real time    0.0854
    ORTHCH:  cpu time    0.0025: real time    0.0025
       DOS:  cpu time    0.0004: real time    0.0004
    CHARGE:  cpu time    0.0147: real time    0.0147
    MIXING:  cpu time    0.0005: real time    0.0005
    --------------------------------------------
      LOOP:  cpu time    0.1471: real time    0.1471

 eigenvalue-minimisations  :   523
 total energy-change (2. order) : 0.2048328E+01  (-0.8858901E+00)
 number of electron      44.0000318 magnetization 
 augmentation part       28.3324361 magnetization 

 Broyden mixing:
  rms(total) = 0.64873E-01    rms(broyden)= 0.64300E-01
  rms(prec ) = 0.11959E+00
  weight for this iteration     100.00

 eigenvalues of (default mixing * dielectric matrix)
  average eigenvalue GAMMA=   1.1247
  1.6444  0.6051

 Free energy of the ion-electron system (eV)
  ---------------------------------------------------
  alpha Z        PSCENC =       182.83200925
  Ewald energy   TEWEN  =     -3994.27284481
  -Hartree energ DENC   =     -1617.49703243
  -exchange      EXHF   =         0.00000000
  -V(xc)+E(xc)   XCENC  =       176.98780762
  PAW double counting   =      4912.48873322    -5330.89961183
  entropy T*S    EENTRO =        -0.00000080
  eigenvalues    EBANDS =        92.96038420
  atomic energy  EATOM  =      5563.75431560
  Solvation  Ediel_sol  =         0.00000000
  ---------------------------------------------------
  free energy    TOTEN  =       -13.64623998 eV

  energy without entropy =      -13.64623918  energy(sigma->0) =      -13.64623958


--------------------------------------------------------------------------------------------------------




--------------------------------------- Iteration      1(   8)  ---------------------------------------


    POTLOK:  cpu time    0.0114: real time    0.0114
    SETDIJ:  cpu time    0.0023: real time    0.0023
    EDDIAG:  cpu time    0.0298: real time    0.0298
  RMM-DIIS:  cpu time    0.0864: real time    0.0864
    ORTHCH:  cpu time    0.0025: real time    0.0025
       DOS:  cpu time    0.0004: real time    0.0004
    CHARGE:  cpu time    0.0146: real time    0.0146
    MIXING:  cpu time    0.0005: real time    0.0005
    --------------------------------------------
      LOOP:  cpu time    0.1480: real time    0.1480

 eigenvalue-minimisations  :   528
 total energy-change (2. order) : 0.1239358E-02  (-0.2313283E-01)
 number of electron      44.0000317 magnetization 
 augmentation part       28.1727728 magnetization 

 Broyden mixing:
  rms(total) = 0.81060E-01    rms(broyden)= 0.80992E-01
  rms(prec ) = 0.19056E+00
  weight for this iteration     100.00

 eigenvalues of (default mixing * dielectric matrix)
  average eigenvalue GAMMA=   1.3591
  0.6363  0.9407  2.5002

 Free energy of the ion-electron system (eV)
  ---------------------------------------------------
  alpha Z        PSCENC =       182.83200925
  Ewald energy   TEWEN  =     -3994.27284481
  -Hartree energ DENC   =     -1615.94321164
  -exchange      EXHF   =         0.00000000
  -V(xc)+E(xc)   XCENC  =       176.99660857
  PAW double counting   =      4957.62488670    -5382.86790858
  entropy T*S    EENTRO =        -0.00001329
  eigenvalues    EBANDS =        98.23115757
  atomic energy  EATOM  =      5563.75431560
  Solvation  Ediel_sol  =         0.00000000
  ---------------------------------------------------
  free energy    TOTEN  =       -13.64500063 eV

  energy without entropy =      -13.64498733  energy(sigma->0) =      -13.64499398


--------------------------------------------------------------------------------------------------------




--------------------------------------- Iteration      1(   9)  ---------------------------------------


    POTLOK:  cpu time    0.0114: real time    0.0114
    SETDIJ:  cpu time    0.0023: real time    0.0023
    EDDIAG:  cpu time    0.0297: real time    0.0297
  RMM-DIIS:  cpu time    0.0888: real time    0.0888
    ORTHCH:  cpu time    0.0025: real time    0.0025
       DOS:  cpu time    0.0004: real time    0.0004
    CHARGE:  cpu time    0.0146: real time    0.0146
    MIXING:  cpu time    0.0006: real time    0.0006
    --------------------------------------------
      LOOP:  cpu time    0.1504: real time    0.1504

 eigenvalue-minimisations  :   540
 total energy-change (2. order) : 0.1142824E-01  (-0.3688380E-02)
 number of electron      44.0000318 magnetization 
 augmentation part       28.2965988 magnetization 

 Broyden mixing:
  rms(total) = 0.67825E-02    rms(broyden)= 0.67547E-02
  rms(prec ) = 0.13713E-01
  weight for this iteration     100.00

 eigenvalues of (default mixing * dielectric matrix)
  average eigenvalue GAMMA=   1.6127
  3.0112  0.6387  0.9137  1.8870

 Free energy of the ion-electron system (eV)
  ---------------------------------------------------
  alpha Z        PSCENC =       182.83200925
  Ewald energy   TEWEN  =     -3994.27284481
  -Hartree energ DENC   =     -1608.96212185
  -exchange      EXHF   =         0.00000000
  -V(xc)+E(xc)   XCENC  =       176.70113163
  PAW double counting   =      4977.02604652    -5403.61470375
  entropy T*S    EENTRO =        -0.00000144
  eigenvalues    EBANDS =        92.90259645
  atomic energy  EATOM  =      5563.75431560
  Solvation  Ediel_sol  =         0.00000000
  ---------------------------------------------------
  free energy    TOTEN  =       -13.63357238 eV

  energy without entropy =      -13.63357094  energy(sigma->0) =      -13.63357166


--------------------------------------------------------------------------------------------------------




--------------------------------------- Iteration      1(  10)  ---------------------------------------


    POTLOK:  cpu time    0.0114: real time    0.0114
    SETDIJ:  cpu time    0.0023: real time    0.0023
    EDDIAG:  cpu time    0.0297: real time    0.0297
  RMM-DIIS:  cpu time    0.0888: real time    0.0888
    ORTHCH:  cpu time    0.0025: real time    0.0025
       DOS:  cpu time    0.0003: real time    0.0003
    CHARGE:  cpu time    0.0147: real time    0.0147
    MIXING:  cpu time    0.0006: real time    0.0006
    --------------------------------------------
      LOOP:  cpu time    0.1503: real time    0.1503

 eigenvalue-minimisations  :   542
 total energy-change (2. order) :-0.2186611E-03  (-0.1774568E-03)
 number of electron      44.0000318 magnetization 
 augmentation part       28.2984880 magnetization 

 Broyden mixing:
  rms(total) = 0.61781E-02    rms(broyden)= 0.61772E-02
  rms(prec ) = 0.13570E-01
  weight for this iteration     100.00

 eigenvalues of (default mixing * dielectric matrix)
  average eigenvalue GAMMA=   1.5720
  3.1423  2.1050  0.6361  0.9883  0.9883

 Free energy of the ion-electron system (eV)
  ---------------------------------------------------
  alpha Z        PSCENC =       182.83200925
  Ewald energy   TEWEN  =     -3994.27284481
  -Hartree energ DENC   =     -1609.17095585
  -exchange      EXHF   =         0.00000000
  -V(xc)+E(xc)   XCENC  =       176.71254070
  PAW double counting   =      4978.34431630    -5404.74059889
  entropy T*S    EENTRO =        -0.00000146
  eigenvalues    EBANDS =        92.90742811
  atomic energy  EATOM  =      5563.75431560
  Solvation  Ediel_sol  =         0.00000000
  ---------------------------------------------------
  free energy    TOTEN  =       -13.63379105 eV

  energy without entropy =      -13.63378958  energy(sigma->0) =      -13.63379031


--------------------------------------------------------------------------------------------------------




--------------------------------------- Iteration      1(  11)  ---------------------------------------


    POTLOK:  cpu time    0.0114: real time    0.0114
    SETDIJ:  cpu time    0.0023: real time    0.0023
    EDDIAG:  cpu time    0.0297: real time    0.0297
  RMM-DIIS:  cpu time    0.0876: real time    0.0876
    ORTHCH:  cpu time    0.0025: real time    0.0025
       DOS:  cpu time    0.0004: real time    0.0004
    CHARGE:  cpu time    0.0147: real time    0.0147
    MIXING:  cpu time    0.0006: real time    0.0006
    --------------------------------------------
      LOOP:  cpu time    0.1491: real time    0.1492

 eigenvalue-minimisations  :   536
 total energy-change (2. order) : 0.3581713E-04  (-0.2535209E-04)
 number of electron      44.0000318 magnetization 
 augmentation part       28.2929295 magnetization 

 Broyden mixing:
  rms(total) = 0.10826E-02    rms(broyden)= 0.10812E-02
  rms(prec ) = 0.25630E-02
  weight for this iteration     100.00

 eigenvalues of (default mixing * dielectric matrix)
  average eigenvalue GAMMA=   1.4915
  2.7680  2.3626  0.6368  0.9294  0.9736  1.2788

 Free energy of the ion-electron system (eV)
  ---------------------------------------------------
  alpha Z        PSCENC =       182.83200925
  Ewald energy   TEWEN  =     -3994.27284481
  -Hartree energ DENC   =     -1609.64709736
  -exchange      EXHF   =         0.00000000
  -V(xc)+E(xc)   XCENC  =       176.73470727
  PAW double counting   =      4978.41906744    -5404.59910979
  entropy T*S    EENTRO =        -0.00000164
  eigenvalues    EBANDS =        93.14519881
  atomic energy  EATOM  =      5563.75431560
  Solvation  Ediel_sol  =         0.00000000
  ---------------------------------------------------
  free energy    TOTEN  =       -13.63375523 eV

  energy without entropy =      -13.63375359  energy(sigma->0) =      -13.63375441


--------------------------------------------------------------------------------------------------------




--------------------------------------- Iteration      1(  12)  ---------------------------------------


    POTLOK:  cpu time    0.0114: real time    0.0114
    SETDIJ:  cpu time    0.0023: real time    0.0023
    EDDIAG:  cpu time    0.0302: real time    0.0302
  RMM-DIIS:  cpu time    0.0551: real time    0.0551
    ORTHCH:  cpu time    0.0026: real time    0.0026
       DOS:  cpu time    0.0004: real time    0.0004
    --------------------------------------------
      LOOP:  cpu time    0.1019: real time    0.1019

 eigenvalue-minimisations  :   301
 total energy-change (2. order) : 0.2970120E-05  (-0.1164999E-05)
 number of electron      44.0000318 magnetization 
 augmentation part       28.2929295 magnetization 

 Free energy of the ion-electron system (eV)
  ---------------------------------------------------
  alpha Z        PSCENC =       182.83200925
  Ewald energy   TEWEN  =     -3994.27284481
  -Hartree energ DENC   =     -1609.72441598
  -exchange      EXHF   =         0.00000000
  -V(xc)+E(xc)   XCENC  =       176.73785321
  PAW double counting   =      4978.01422201    -5404.15874462
  entropy T*S    EENTRO =        -0.00000167
  eigenvalues    EBANDS =        93.18385474
  atomic energy  EATOM  =      5563.75431560
  Solvation  Ediel_sol  =         0.00000000
  ---------------------------------------------------
  free energy    TOTEN  =       -13.63375226 eV

  energy without entropy =      -13.63375059  energy(sigma->0) =      -13.63375142


--------------------------------------------------------------------------------------------------------




 average (electrostatic) potential at core
  the test charge radii are     0.9430
  (the norm of the test charge is              1.0000)
       1 -66.2941       2 -66.2941       3 -66.2941       4 -66.2941
 
 
 
 E-fermi :   4.3168     XC(G=0): -11.0551     alpha+bet : -9.9090


 k-point     1 :       0.0833    0.0833    0.0833
  band No.  band energies     occupation 
      1      -2.7039      2.00000
      2       1.0298      2.00000
      3       1.0298      2.00000
      4       1.0298      2.00000
      5       1.3157      2.00000
      6       1.3157      2.00000
      7       1.3157      2.00000
      8       2.1036      2.00000
      9       2.1631      2.00000
     10       2.1631      2.00000
     11       2.6385      2.00000
     12       2.6385      2.00000
     13       2.9263      2.00000
     14       2.9263      2.00000
     15       2.9263      2.00000
     16       2.9438      2.00000
     17       2.9438      2.00000
     18       2.9438      2.00000
     19       3.0681      2.00000
     20       3.0681      2.00000
     21       3.0681      2.00000
     22       5.8138      0.00000
     23       5.8138      0.00000
     24       5.8138      0.00000
     25      10.3626      0.00000
     26      10.3626      0.00000

 k-point     2 :       0.2500    0.0833    0.0833
  band No.  band energies     occupation 
      1      -2.1695      2.00000
      2       0.9157      2.00000
      3       1.2219      2.00000
      4       1.2219      2.00000
      5       1.4211      2.00000
      6       1.4332      2.00000
      7       1.4332      2.00000
      8       2.0037      2.00000
      9       2.2446      2.00000
     10       2.2477      2.00000
     11       2.4994      2.00000
     12       2.4994      2.00000
     13       2.5527      2.00000
     14       2.6868      2.00000
     15       2.6944      2.00000
     16       2.8221      2.00000
     17       2.8309      2.00000
     18       2.8309      2.00000
     19       3.0011      2.00000
     20       3.0560      2.00000
     21       3.0560      2.00000
     22       3.8508      2.00000
     23       6.6651      0.00000
     24       6.6651      0.00000
     25      10.6948      0.00000
     26      10.6948      0.00000

 k-point     3 :       0.4167    0.0833    0.0833
  band No.  band energies     occupation 
      1      -1.1496      2.00000
      2       0.1377      2.00000
      3       1.4746      2.00000
      4       1.4746      2.00000
      5       1.6045      2.00000
      6       1.6596      2.00000
      7       1.6596      2.00000
      8       1.8179      2.00000
      9       2.0310      2.00000
     10       2.0310      2.00000
     11       2.3028      2.00000
     12       2.3195      2.00000
     13       2.4080      2.00000
     14       2.5538      2.00000
     15       2.6185      2.00000
     16       2.6637      2.00000
     17       2.6637      2.00000
     18       2.7904      2.00000
     19       2.8758      2.00000
     20       2.9008      2.00000
     21       3.0516      2.00000
     22       3.0516      2.00000
     23       7.9767      0.00000
     24       7.9767      0.00000
     25       9.6107      0.00000
     26       9.6107      0.00000

 k-point     4 :       0.2500    0.2500    0.0833
  band No.  band energies     occupation 
      1      -1.6531      2.00000
      2       1.1548      2.00000
      3       1.1548      2.00000
      4       1.3520      2.00000
      5       1.5257      2.00000
      6       1.5257      2.00000
      7       1.5302      2.00000
      8       1.9709      2.00000
      9       2.2467      2.00000
     10       2.2525      2.00000
     11       2.2525      2.00000
     12       2.2774      2.00000
     13       2.3208      2.00000
     14       2.5540      2.00000
     15       2.7092      2.00000
     16       2.7462      2.00000
     17       2.7462      2.00000
     18       2.7481      2.00000
     19       2.9754      2.00000
     20       2.9754      2.00000
     21       2.9874      2.00000
     22       4.5831      0.00000
     23       4.5831      0.00000
     24       7.3744      0.00000
     25       9.1231      0.00000
     26      11.1595      0.00000

 k-point     5 :       0.4167    0.2500    0.0833
  band No.  band energies     occupation 
      1      -0.6812      2.00000
      2       0.4959      2.00000
      3       1.4692      2.00000
      4       1.5255      2.00000
      5       1.6561      2.00000
      6       1.6829      2.00000
      7       1.7046      2.00000
      8       1.8498      2.00000
      9       1.9110      2.00000
     10       2.0379      2.00000
     11       2.1018      2.00000
     12       2.2021      2.00000
     13       2.3824      2.00000
     14       2.5545      2.00000
     15       2.5904      2.00000
     16       2.5999      2.00000
     17       2.6221      2.00000
     18       2.8220      2.00000
     19       2.9345      2.00000
     20       2.9357      2.00000
     21       2.9380      2.00000
     22       3.3484      2.00000
     23       5.6542      0.00000
     24       7.1229      0.00000
     25       8.6128      0.00000
     26      10.2081      0.00000

 k-point     6 :       0.4167    0.4167    0.0833
  band No.  band energies     occupation 
      1       0.1498      2.00000
      2       1.0133      2.00000
      3       1.0133      2.00000
      4       1.3637      2.00000
      5       1.8383      2.00000
      6       1.8428      2.00000
      7       1.8428      2.00000
      8       1.8747      2.00000
      9       1.9558      2.00000
     10       1.9558      2.00000
     11       1.9924      2.00000
     12       2.1244      2.00000
     13       2.3734      2.00000
     14       2.4750      2.00000
     15       2.4787      2.00000
     16       2.4787      2.00000
     17       2.6008      2.00000
     18       2.7601      2.00000
     19       2.7601      2.00000
     20       2.8093      2.00000
     21       3.2928      2.00000
     22       4.0444      2.00000
     23       4.0444      2.00000
     24       5.2388      0.00000
     25       9.7477      0.00000
     26      11.3332      0.00000

 k-point     7 :       0.2500    0.2500    0.2500
  band No.  band energies     occupation 
      1      -1.1675      2.00000
      2       1.2351      2.00000
      3       1.2351      2.00000
      4       1.2351      2.00000
      5       1.6543      2.00000
      6       1.6543      2.00000
      7       1.6543      2.00000
      8       1.9994      2.00000
      9       2.1769      2.00000
     10       2.1769      2.00000
     11       2.1769      2.00000
     12       2.2353      2.00000
     13       2.2353      2.00000
     14       2.5423      2.00000
     15       2.5423      2.00000
     16       2.5423      2.00000
     17       2.7037      2.00000
     18       2.7037      2.00000
     19       3.0293      2.00000
     20       3.0293      2.00000
     21       3.0293      2.00000
     22       5.1095      0.00000
     23       5.1095      0.00000
     24       5.1095      0.00000
     25       9.7180      0.00000
     26       9.7180      0.00000

 k-point     8 :       0.4167    0.2500    0.2500
  band No.  band energies     occupation 
      1      -0.2851      2.00000
      2       0.6890      2.00000
      3       1.2933      2.00000
      4       1.2933      2.00000
      5       1.8003      2.00000
      6       1.8003      2.00000
      7       1.8552      2.00000
      8       1.9820      2.00000
      9       2.0959      2.00000
     10       2.1310      2.00000
     11       2.1310      2.00000
     12       2.1823      2.00000
     13       2.2604      2.00000
     14       2.3707      2.00000
     15       2.4430      2.00000
     16       2.4430      2.00000
     17       2.8335      2.00000
     18       2.8711      2.00000
     19       2.9823      2.00000
     20       2.9823      2.00000
     21       2.9911      2.00000
     22       3.5324      2.00000
     23       6.0075      0.00000
     24       6.0075      0.00000
     25       7.8192      0.00000
     26       7.8192      0.00000

 k-point     9 :       0.4167    0.4167    0.2500
  band No.  band energies     occupation 
      1       0.3431      2.00000
      2       0.9068      2.00000
      3       0.9068      2.00000
      4       1.0950      2.00000
      5       1.9483      2.00000
      6       2.0083      2.00000
      7       2.0083      2.00000
      8       2.1386      2.00000
      9       2.2129      2.00000
     10       2.2247      2.00000
     11       2.2247      2.00000
     12       2.2337      2.00000
     13       2.3033      2.00000
     14       2.3043      2.00000
     15       2.3043      2.00000
     16       2.3178      2.00000
     17       2.8072      2.00000
     18       2.9412      2.00000
     19       2.9412      2.00000
     20       2.9449      2.00000
     21       3.1994      2.00000
     22       4.1676      1.99998
     23       4.1676      1.99998
     24       5.3571      0.00000
     25       7.4717      0.00000
     26       8.8517      0.00000

 k-point    10 :       0.4167    0.4167    0.4167
  band No.  band energies     occupation 
      1       0.5872      2.00000
      2       0.8284      2.00000
      3       0.8284      2.00000
      4       0.8284      2.00000
      5       2.0744      2.00000
      6       2.0744      2.00000
      7       2.0744      2.00000
      8       2.1405      2.00000
      9       2.1405      2.00000
     10       2.1735      2.00000
     11       2.1735      2.00000
     12       2.1735      2.00000
     13       2.6824      2.00000
     14       2.6824      2.00000
     15       2.6824      2.00000
     16       2.9575      2.00000
     17       2.9575      2.00000
     18       3.0079      2.00000
     19       3.0079      2.00000
     20       3.0079      2.00000
     21       3.1378      2.00000
     22       4.4604      0.00005
     23       4.4604      0.00005
     24       4.4604      0.00005
     25       7.1652      0.00000
     26       7.1652      0.00000


--------------------------------------------------------------------------------------------------------


 soft charge-density along one line, spin component           1
         0         1         2         3         4         5         6         7         8         9
 total charge-density along one line
 
 pseudopotential strength for first ion, spin component:           1
 -4.776   0.000   0.000   0.000   0.000  -3.316  -0.000  -0.000
  0.000  -4.776  -0.000  -0.000   0.000  -0.000  -3.316   0.000
  0.000  -0.000  -4.764   0.000   0.000  -0.000   0.000  -3.325
  0.000  -0.000   0.000  -4.776  -0.000  -0.000   0.000  -0.000
  0.000   0.000   0.000  -0.000  -4.764  -0.000  -0.000  -0.000
 -3.316  -0.000  -0.000  -0.000  -0.000   9.314   0.000   0.000
 -0.000  -3.316   0.000   0.000  -0.000   0.000   9.314  -0.000
 -0.000   0.000  -3.325  -0.000  -0.000   0.000  -0.000   9.321
 -0.000   0.000  -0.000  -3.316   0.000   0.000  -0.000   0.000
 -0.000  -0.000  -0.000   0.000  -3.325   0.000   0.000   0.000
  0.000   0.000   0.000  -0.000  -0.000   0.000   0.000  -0.000
  0.000   0.000   0.000  -0.000  -0.000   0.000   0.000  -0.000
  0.000  -0.000   0.000   0.000   0.000  -0.000   0.000  -0.000
  0.000  -0.000  -0.000   0.000  -0.000   0.000   0.000   0.000
 -0.000   0.000  -0.000  -0.000   0.000  -0.000   0.000   0.000
  0.000  -0.000   0.000  -0.000   0.000   0.000  -0.000   0.000
 -0.000  -0.000  -0.000   0.000   0.000   0.000  -0.000   0.000
 -0.000  -0.000  -0.000  -0.000   0.000  -0.000   0.000  -0.000
 total augmentation occupancy for first ion, spin component:           1
  1.907  -0.000  -0.000   0.000   0.000  -0.028  -0.000  -0.000   0.000   0.000   0.000  -0.000  -0.000  -0.000   0.000   0.000
  0.000   1.907   0.000   0.000   0.000  -0.000  -0.028  -0.000   0.000  -0.000   0.000  -0.000   0.000   0.000   0.000  -0.000
  0.000  -0.000   1.928   0.000  -0.000   0.000   0.000  -0.040   0.000   0.000  -0.000  -0.000  -0.000   0.000   0.000  -0.000
 -0.000   0.000  -0.000   1.907  -0.000   0.000   0.000  -0.000  -0.028  -0.000  -0.000   0.000  -0.000  -0.000   0.000  -0.000
  0.000  -0.000   0.000   0.000   1.928   0.000   0.000  -0.000   0.000  -0.040  -0.000   0.000  -0.000  -0.000   0.000   0.000
 -0.028   0.000   0.000   0.000   0.000   0.008  -0.000  -0.000   0.000  -0.000   0.000  -0.000  -0.000  -0.000   0.000   0.000
 -0.000  -0.028   0.000   0.000   0.000  -0.000   0.008   0.000  -0.000  -0.000  -0.000  -0.000   0.000   0.000  -0.000  -0.000
  0.000   0.000  -0.040   0.000   0.000   0.000   0.000   0.007   0.000   0.000  -0.000   0.000   0.000  -0.000  -0.000  -0.000
  0.000   0.000  -0.000  -0.028  -0.000   0.000   0.000   0.000   0.008   0.000  -0.000   0.000   0.000   0.000   0.000   0.000
  0.000  -0.000  -0.000  -0.000  -0.040  -0.000  -0.000   0.000   0.000   0.007   0.000  -0.000  -0.000   0.000   0.000   0.000
  0.000   0.000   0.000   0.000   0.000   0.000  -0.000  -0.000   0.000   0.000   1.379  -0.104   0.000   0.000   0.000   0.000
  0.000  -0.000   0.000   0.000   0.000  -0.000  -0.000   0.000   0.000  -0.000  -0.104   0.011   0.000   0.000   0.000   0.000
 -0.000   0.000   0.000  -0.000  -0.000  -0.000   0.000   0.000   0.000  -0.000   0.000   0.000   0.132   0.000   0.000  -0.008
 -0.000   0.000  -0.000   0.000   0.000  -0.000   0.000   0.000   0.000   0.000   0.000   0.000   0.000   0.132  -0.000   0.000
 -0.000   0.000  -0.000   0.000   0.000   0.000  -0.000  -0.000   0.000   0.000   0.000   0.000   0.000  -0.000   0.132   0.000
  0.000  -0.000   0.000  -0.000  -0.000   0.000  -0.000  -0.000   0.000  -0.000   0.000   0.000  -0.008   0.000  -0.000   0.001
  0.000   0.000   0.000  -0.000   0.000   0.000  -0.000  -0.000   0.000   0.000   0.000   0.000  -0.000  -0.008  -0.000   0.000
 -0.000  -0.000   0.000   0.000  -0.000  -0.000   0.000   0.000  -0.000   0.000   0.000   0.000   0.000   0.000  -0.008  -0.000


------------------------ aborting loop because EDIFF is reached ----------------------------------------


    CHARGE:  cpu time    0.0151: real time    0.0151
    FORLOC:  cpu time    0.0010: real time    0.0010
    FORNL :  cpu time    0.0313: real time    0.0313
    STRESS:  cpu time    0.0514: real time    0.0514
    FORCOR:  cpu time    0.0121: real time    0.0121
    FORHAR:  cpu time    0.0029: real time    0.0029
    MIXING:  cpu time    0.0006: real time    0.0006
    OFIELD:  cpu time    0.0000: real time    0.0000

  FORCE on cell =-STRESS in cart. coord.  units (eV):
  Direction    XX          YY          ZZ          XY          YZ          ZX
  --------------------------------------------------------------------------------------
  Alpha Z   182.83201   182.83201   182.83201
  Ewald   -1331.42487 -1331.42487 -1331.42487     0.00000     0.00000    -0.00000
  Hartree   536.58685   536.58685   536.58685    -0.00000    -0.00000    -0.00000
  E(xc)    -255.73650  -255.73650  -255.73650    -0.00000     0.00000     0.00000
  Local     228.96051   228.96051   228.96051     0.00000     0.00000     0.00000
  n-local   -96.20824  -102.83680  -104.57621     0.17979     2.70391     1.53560
  augment   377.55379   377.55379   377.55379     0.00000     0.00000     0.00000
  Kinetic   360.48586   353.66372   348.31836    -3.31319     0.28902    -0.73093
  Fock        0.00000     0.00000     0.00000     0.00000     0.00000     0.00000
  -------------------------------------------------------------------------------------
  Total      -8.27931    -8.27931    -8.27931    -0.00000     0.00000     0.00000
  in kB    -207.26441  -207.26441  -207.26441    -0.00000     0.00000     0.00000
  external pressure =     -207.26 kB  Pullay stress =        0.00 kB


 VOLUME and BASIS-vectors are now :
 -----------------------------------------------------------------------------
  energy-cutoff  :      300.00
  volume of cell :       64.00
      direct lattice vectors                 reciprocal lattice vectors
     4.000000000  0.000000000  0.000000000     0.250000000  0.000000000  0.000000000
     0.000000000  4.000000000  0.000000000     0.000000000  0.250000000  0.000000000
     0.000000000  0.000000000  4.000000000     0.000000000  0.000000000  0.250000000

  length of vectors
     4.000000000  4.000000000  4.000000000     0.250000000  0.250000000  0.250000000


 FORCES acting on ions
    electron-ion (+dipol)            ewald-force                    non-local-force                 convergence-correction
 -----------------------------------------------------------------------------------------------
   -.386E-13 -.745E-13 -.665E-13   0.446E-14 -.104E-13 -.610E-14   0.331E-22 0.397E-22 0.106E-21   -.233E-13 -.705E-14 -.456E-13
   -.382E-13 0.713E-12 0.716E-12   0.346E-14 0.157E-13 0.468E-14   -.529E-22 -.132E-21 -.159E-21   -.116E-14 0.155E-13 0.190E-13
   0.742E-12 -.856E-13 -.484E-11   -.237E-14 -.148E-13 0.486E-14   0.662E-22 -.265E-22 -.132E-22   0.105E-13 0.439E-14 0.172E-13
   0.748E-12 -.344E-11 -.485E-11   -.337E-14 0.114E-13 -.276E-14   0.265E-22 -.529E-22 0.000E+00   0.701E-15 -.101E-13 -.893E-13
 -----------------------------------------------------------------------------------------------
   0.141E-11 -.289E-11 -.904E-11   0.218E-14 0.189E-14 0.670E-15   0.728E-22 -.172E-21 -.662E-22   -.133E-13 0.277E-14 -.986E-13
 
 
 POSITION                                       TOTAL-FORCE (eV/Angst)
 -----------------------------------------------------------------------------------
      0.00000      0.00000      0.00000        -0.000000     -0.000000     -0.000000
      0.00000      2.00000      2.00000        -0.000000      0.000000      0.000000
      2.00000      0.00000      2.00000         0.000000     -0.000000      0.000000
      2.00000      2.00000      0.00000         0.000000      0.000000     -0.000000
 -----------------------------------------------------------------------------------
    total drift:                                0.000000     -0.000000     -0.000000


--------------------------------------------------------------------------------------------------------



  FREE ENERGIE OF THE ION-ELECTRON SYSTEM (eV)
  ---------------------------------------------------
  free  energy   TOTEN  =       -13.63375226 eV

  energy  without entropy=      -13.63375059  energy(sigma->0) =      -13.63375142
 


--------------------------------------------------------------------------------------------------------


    POTLOK:  cpu time    0.0138: real time    0.0138


--------------------------------------------------------------------------------------------------------


     LOOP+:  cpu time    2.0340: real time    2.1316
    4ORBIT:  cpu time    0.0000: real time    0.0000

 total amount of memory used by VASP MPI-rank0    34318. kBytes
=======================================================================

   base      :      30000. kBytes
   nonl-proj :        586. kBytes
   fftplans  :       1170. kBytes
   grid      :       1645. kBytes
   one-center:         31. kBytes
   wavefun   :        886. kBytes
 
  
  
 General timing and accounting informations for this job:
 ========================================================
  
                  Total CPU time used (sec):        2.776
                            User time (sec):        2.542
                          System time (sec):        0.234
                         Elapsed time (sec):        3.292
  
                   Maximum memory used (kb):      167612.
                   Average memory used (kb):           0.
  
                          Minor page faults:        29628
                          Major page faults:            0
                 Voluntary context switches:         1080
