Attempting to create directory /home/ankit/perl5
 running on    4 total cores
 distrk:  each k-point on    4 cores,    1 groups
 distr:  one band on    2 cores,    2 groups
 using from now: INCAR     
 vasp.5.4.4.18Apr17-6-g9f103f2a35 (build Jan 01 2020 16:14:11) complex          
  
 POSCAR found :  1 types and       4 ions
 scaLAPACK will be used
 LDA part: xc-table for Pade appr. of Perdew
 POSCAR, INCAR and KPOINTS ok, starting setup
 FFT: planning ...
 WAVECAR not read
 entering main loop
       N       E                     dE             d eps       ncg     rms          rms(c)
DAV:   1     0.286614942668E+03    0.28661E+03   -0.14408E+04   520   0.181E+03
DAV:   2     0.465974898363E+01   -0.28196E+03   -0.27608E+03   520   0.366E+02
DAV:   3    -0.157444978011E+02   -0.20404E+02   -0.19576E+02   586   0.142E+02
DAV:   4    -0.164324810274E+02   -0.68798E+00   -0.66443E+00   672   0.268E+01
DAV:   5    -0.164410998936E+02   -0.86189E-02   -0.86086E-02   596   0.225E+00    0.138E+01
RMM:   6    -0.156945677548E+02    0.74653E+00   -0.44392E+01   532   0.981E+01    0.999E+00
RMM:   7    -0.136462399843E+02    0.20483E+01   -0.88589E+00   523   0.484E+01    0.649E-01
RMM:   8    -0.136450006258E+02    0.12394E-02   -0.23133E-01   528   0.702E+00    0.811E-01
RMM:   9    -0.136335723846E+02    0.11428E-01   -0.36884E-02   540   0.288E+00    0.678E-02
RMM:  10    -0.136337910457E+02   -0.21866E-03   -0.17746E-03   542   0.221E-01    0.618E-02
RMM:  11    -0.136337552286E+02    0.35817E-04   -0.25352E-04   536   0.227E-01    0.108E-02
RMM:  12    -0.136337522585E+02    0.29701E-05   -0.11650E-05   301   0.203E-02
   1 F= -.13633752E+02 E0= -.13633751E+02  d E =-.167069E-05
