unknown system                          
           1
     4.000000    0.000000    0.000000
     0.000000    4.000000    0.000000
     0.000000    0.000000    4.000000
   Cu
   4
Direct configuration=     1
   0.00000000  0.00000000  0.00000000
   0.00000000  0.50000000  0.50000000
   0.50000000  0.00000000  0.50000000
   0.50000000  0.50000000  0.00000000
