   4   4   0   0
  0.1482975E+02  0.3900000E-09  0.3900000E-09  0.3900000E-09  0.5000000E-15
  1.000000000000000E-004
  CAR 
 unknown system                          
     13.16146309     -3.20213329  301      4.97306958      1.00000000
     -3.202  0.0000E+00  0.0000E+00
     -3.148  0.0000E+00  0.0000E+00
     -3.093  0.0000E+00  0.0000E+00
     -3.038  0.0000E+00  0.0000E+00
     -2.984  0.0000E+00  0.0000E+00
     -2.929  0.0000E+00  0.0000E+00
     -2.875  0.0000E+00  0.0000E+00
     -2.820  0.0000E+00  0.0000E+00
     -2.766  0.0000E+00  0.0000E+00
     -2.711  0.5771E-12  0.3148E-13
     -2.657  0.1373E-07  0.7490E-09
     -2.602  0.3228E-04  0.1761E-05
     -2.548  0.7834E-02  0.4291E-03
     -2.493  0.2136E+00  0.1208E-01
     -2.438  0.7462E+00  0.5279E-01
     -2.384  0.3663E+00  0.7276E-01
     -2.329  0.2385E-01  0.7406E-01
     -2.275  0.1803E-03  0.7407E-01
     -2.220  0.1433E-06  0.7407E-01
     -2.166  0.1140E-10  0.7407E-01
     -2.111  0.2103E-08  0.7407E-01
     -2.057  0.1034E-04  0.7407E-01
     -2.002  0.5159E-02  0.7436E-01
     -1.948  0.2799E+00  0.8962E-01
     -1.893  0.1860E+01  0.1911E+00
     -1.839  0.1710E+01  0.2844E+00
     -1.784  0.2157E+00  0.2961E+00
     -1.729  0.3294E-02  0.2963E+00
     -1.675  0.5428E-05  0.2963E+00
     -1.620  0.9038E-09  0.2963E+00
     -1.566  0.3237E-08  0.2963E+00
     -1.511  0.1435E-04  0.2963E+00
     -1.457  0.6469E-02  0.2966E+00
     -1.402  0.3184E+00  0.3140E+00
     -1.348  0.1933E+01  0.4194E+00
     -1.293  0.1627E+01  0.5082E+00
     -1.239  0.1872E+00  0.5184E+00
     -1.184  0.2593E-02  0.5185E+00
     -1.129  0.3859E-05  0.5185E+00
     -1.075  0.6234E-09  0.5185E+00
     -1.020  0.4563E-06  0.5185E+00
     -0.966  0.5072E-03  0.5185E+00
     -0.911  0.6678E-01  0.5222E+00
     -0.857  0.1162E+01  0.5856E+00
     -0.802  0.2975E+01  0.7479E+00
     -0.748  0.1164E+01  0.8113E+00
     -0.693  0.6328E-01  0.8148E+00
     -0.639  0.4108E-03  0.8148E+00
     -0.584  0.2850E-06  0.8148E+00
     -0.529  0.1371E-06  0.8148E+00
     -0.475  0.2824E-03  0.8148E+00
     -0.420  0.6027E-01  0.8181E+00
     -0.366  0.1455E+01  0.8975E+00
     -0.311  0.4532E+01  0.1145E+01
     -0.257  0.1986E+01  0.1253E+01
     -0.202  0.1147E+00  0.1259E+01
     -0.148  0.7630E-03  0.1259E+01
     -0.093  0.3478E-05  0.1259E+01
     -0.039  0.2144E-02  0.1259E+01
      0.016  0.1671E+00  0.1268E+01
      0.071  0.1561E+01  0.1354E+01
      0.125  0.1985E+01  0.1462E+01
      0.180  0.3512E+00  0.1481E+01
      0.234  0.7696E-02  0.1481E+01
      0.289  0.1848E-04  0.1481E+01
      0.343  0.3237E-05  0.1481E+01
      0.398  0.2471E-02  0.1482E+01
      0.452  0.2151E+00  0.1493E+01
      0.507  0.2456E+01  0.1627E+01
      0.561  0.4256E+01  0.1859E+01
      0.616  0.1174E+01  0.1924E+01
      0.671  0.2383E+00  0.1937E+01
      0.725  0.1641E+01  0.2026E+01
      0.780  0.1928E+01  0.2131E+01
      0.834  0.7664E+00  0.2173E+01
      0.889  0.3494E+01  0.2364E+01
      0.943  0.3866E+01  0.2574E+01
      0.998  0.1290E+01  0.2645E+01
      1.052  0.9170E+00  0.2695E+01
      1.107  0.2201E+01  0.2815E+01
      1.161  0.1347E+01  0.2888E+01
      1.216  0.1325E+01  0.2961E+01
      1.271  0.3214E+01  0.3136E+01
      1.325  0.6446E+01  0.3488E+01
      1.380  0.5495E+01  0.3787E+01
      1.434  0.5822E+01  0.4105E+01
      1.489  0.6218E+01  0.4444E+01
      1.543  0.4515E+01  0.4690E+01
      1.598  0.6419E+01  0.5040E+01
      1.652  0.7416E+01  0.5445E+01
      1.707  0.7314E+01  0.5844E+01
      1.761  0.8468E+01  0.6306E+01
      1.816  0.7992E+01  0.6742E+01
      1.871  0.8438E+01  0.7202E+01
      1.925  0.1462E+02  0.7999E+01
      1.980  0.1542E+02  0.8841E+01
      2.034  0.1161E+02  0.9474E+01
      2.089  0.6965E+01  0.9853E+01
      2.143  0.1524E+02  0.1068E+02
      2.198  0.1528E+02  0.1152E+02
      2.252  0.6090E+01  0.1185E+02
      2.307  0.9807E+01  0.1239E+02
      2.361  0.1880E+02  0.1341E+02
      2.416  0.1430E+02  0.1419E+02
      2.471  0.1419E+02  0.1496E+02
      2.525  0.2143E+02  0.1613E+02
      2.580  0.2022E+02  0.1724E+02
      2.634  0.1601E+02  0.1811E+02
      2.689  0.2070E+02  0.1924E+02
      2.743  0.2301E+02  0.2049E+02
      2.798  0.2884E+02  0.2207E+02
      2.852  0.2742E+02  0.2356E+02
      2.907  0.2065E+02  0.2469E+02
      2.961  0.1352E+02  0.2543E+02
      3.016  0.1269E+02  0.2612E+02
      3.071  0.1500E+02  0.2694E+02
      3.125  0.1581E+02  0.2780E+02
      3.180  0.2199E+02  0.2900E+02
      3.234  0.2448E+02  0.3033E+02
      3.289  0.1960E+02  0.3140E+02
      3.343  0.1631E+02  0.3229E+02
      3.398  0.1749E+02  0.3325E+02
      3.452  0.2184E+02  0.3444E+02
      3.507  0.1987E+02  0.3552E+02
      3.561  0.2047E+02  0.3664E+02
      3.616  0.3546E+02  0.3857E+02
      3.671  0.2939E+02  0.4018E+02
      3.725  0.1971E+02  0.4125E+02
      3.780  0.8814E+01  0.4173E+02
      3.834  0.1764E+01  0.4183E+02
      3.889  0.2332E+01  0.4195E+02
      3.943  0.1743E+01  0.4205E+02
      3.998  0.4007E+01  0.4227E+02
      4.052  0.5438E+01  0.4257E+02
      4.107  0.1784E+01  0.4266E+02
      4.161  0.4396E+00  0.4269E+02
      4.216  0.1989E+01  0.4279E+02
      4.271  0.1556E+01  0.4288E+02
      4.325  0.1658E+00  0.4289E+02
      4.380  0.2302E-02  0.4289E+02
      4.434  0.3604E-01  0.4289E+02
      4.489  0.7950E+00  0.4293E+02
      4.543  0.2277E+01  0.4306E+02
      4.598  0.9175E+00  0.4311E+02
      4.652  0.5230E-01  0.4311E+02
      4.707  0.3135E+00  0.4313E+02
      4.761  0.3062E+01  0.4330E+02
      4.816  0.4766E+01  0.4356E+02
      4.871  0.4765E+01  0.4382E+02
      4.925  0.3068E+01  0.4398E+02
      4.980  0.3279E+00  0.4400E+02
      5.034  0.4771E+00  0.4403E+02
      5.089  0.2131E+01  0.4414E+02
      5.143  0.1342E+01  0.4422E+02
      5.198  0.1185E+00  0.4422E+02
      5.252  0.3512E+00  0.4424E+02
      5.307  0.3175E+01  0.4441E+02
      5.361  0.3929E+01  0.4463E+02
      5.416  0.6754E+00  0.4467E+02
      5.471  0.1436E-01  0.4467E+02
      5.525  0.3339E-04  0.4467E+02
      5.580  0.7904E-08  0.4467E+02
      5.634  0.2180E-09  0.4467E+02
      5.689  0.1817E-05  0.4467E+02
      5.743  0.1522E-02  0.4467E+02
      5.798  0.1359E+00  0.4467E+02
      5.852  0.1441E+01  0.4475E+02
      5.907  0.2074E+01  0.4487E+02
      5.961  0.6635E+00  0.4490E+02
      6.016  0.2123E+01  0.4502E+02
      6.071  0.3761E+01  0.4522E+02
      6.125  0.1840E+01  0.4532E+02
      6.180  0.1799E+00  0.4533E+02
      6.234  0.2336E-02  0.4533E+02
      6.289  0.3455E-04  0.4533E+02
      6.343  0.1372E-01  0.4533E+02
      6.398  0.6605E+00  0.4537E+02
      6.452  0.4077E+01  0.4559E+02
      6.507  0.4801E+01  0.4585E+02
      6.561  0.2322E+01  0.4598E+02
      6.616  0.3405E+00  0.4600E+02
      6.671  0.3199E-01  0.4600E+02
      6.725  0.9156E+00  0.4605E+02
      6.780  0.4232E+01  0.4628E+02
      6.834  0.2735E+01  0.4643E+02
      6.889  0.2383E+00  0.4644E+02
      6.943  0.2455E-02  0.4644E+02
      6.998  0.2686E-05  0.4644E+02
      7.052  0.2947E-09  0.4644E+02
      7.107  0.3619E-14  0.4644E+02
      7.161  0.3166E-14  0.4644E+02
      7.216  0.2873E-09  0.4644E+02
      7.271  0.2634E-05  0.4644E+02
      7.325  0.2421E-02  0.4644E+02
      7.380  0.2363E+00  0.4646E+02
      7.434  0.2725E+01  0.4661E+02
      7.489  0.4238E+01  0.4684E+02
      7.543  0.9213E+00  0.4689E+02
      7.598  0.2518E-01  0.4689E+02
      7.652  0.7616E-04  0.4689E+02
      7.707  0.2359E-07  0.4689E+02
      7.761  0.5537E-08  0.4689E+02
      7.816  0.2549E-04  0.4689E+02
      7.871  0.1192E-01  0.4689E+02
      7.925  0.6080E+00  0.4692E+02
      7.980  0.3814E+01  0.4713E+02
      8.034  0.3316E+01  0.4731E+02
      8.089  0.5195E+00  0.4734E+02
      8.143  0.1236E+01  0.4741E+02
      8.198  0.2794E+01  0.4756E+02
      8.252  0.2244E+01  0.4768E+02
      8.307  0.3866E+00  0.4770E+02
      8.361  0.4137E-01  0.4771E+02
      8.416  0.7542E+00  0.4775E+02
      8.471  0.2271E+01  0.4787E+02
      8.525  0.9622E+00  0.4792E+02
      8.580  0.5360E-01  0.4793E+02
      8.634  0.3985E-03  0.4793E+02
      8.689  0.2025E-01  0.4793E+02
      8.743  0.8247E+00  0.4797E+02
      8.798  0.4574E+01  0.4822E+02
      8.852  0.6367E+01  0.4857E+02
      8.907  0.3957E+01  0.4878E+02
      8.961  0.5435E+00  0.4881E+02
      9.016  0.9706E-02  0.4881E+02
      9.071  0.1892E-04  0.4881E+02
      9.125  0.3742E-08  0.4881E+02
      9.180  0.7237E-13  0.4881E+02
      9.234  0.0000E+00  0.4881E+02
      9.289  0.1470E-12  0.4881E+02
      9.343  0.6609E-08  0.4881E+02
      9.398  0.2915E-04  0.4881E+02
      9.452  0.1308E-01  0.4882E+02
      9.507  0.6408E+00  0.4885E+02
      9.561  0.3872E+01  0.4906E+02
      9.616  0.3245E+01  0.4924E+02
      9.671  0.3719E+00  0.4926E+02
      9.725  0.5906E-02  0.4926E+02
      9.780  0.9007E-01  0.4926E+02
      9.834  0.1216E+01  0.4933E+02
      9.889  0.2194E+01  0.4945E+02
      9.943  0.5554E+00  0.4948E+02
      9.998  0.2463E-01  0.4948E+02
     10.052  0.3269E+00  0.4950E+02
     10.107  0.1947E+01  0.4961E+02
     10.161  0.1610E+01  0.4969E+02
     10.216  0.1818E+00  0.4970E+02
     10.271  0.2468E-02  0.4970E+02
     10.325  0.3596E-05  0.4970E+02
     10.380  0.3355E-08  0.4970E+02
     10.434  0.1528E-04  0.4970E+02
     10.489  0.8363E-02  0.4970E+02
     10.543  0.4958E+00  0.4973E+02
     10.598  0.3582E+01  0.4993E+02
     10.652  0.3604E+01  0.5012E+02
     10.707  0.1471E+01  0.5020E+02
     10.761  0.3578E+01  0.5040E+02
     10.816  0.2028E+01  0.5051E+02
     10.871  0.1697E+00  0.5052E+02
     10.925  0.1801E-02  0.5052E+02
     10.980  0.2129E-05  0.5052E+02
     11.034  0.1087E-06  0.5052E+02
     11.089  0.2374E-03  0.5052E+02
     11.143  0.5377E-01  0.5052E+02
     11.198  0.1373E+01  0.5060E+02
     11.252  0.4510E+01  0.5084E+02
     11.307  0.2083E+01  0.5096E+02
     11.361  0.1272E+00  0.5096E+02
     11.416  0.1510E-01  0.5096E+02
     11.471  0.4061E+00  0.5099E+02
     11.525  0.1483E+01  0.5107E+02
     11.580  0.7605E+00  0.5111E+02
     11.634  0.5189E-01  0.5111E+02
     11.689  0.4168E-03  0.5111E+02
     11.743  0.3651E-02  0.5111E+02
     11.798  0.3034E+00  0.5113E+02
     11.852  0.3009E+01  0.5129E+02
     11.907  0.4054E+01  0.5151E+02
     11.961  0.7607E+00  0.5155E+02
     12.016  0.1776E-01  0.5156E+02
     12.071  0.4555E-04  0.5156E+02
     12.125  0.6145E-05  0.5156E+02
     12.180  0.3588E-02  0.5156E+02
     12.234  0.2268E+00  0.5157E+02
     12.289  0.1739E+01  0.5166E+02
     12.343  0.1905E+01  0.5177E+02
     12.398  0.1366E+01  0.5184E+02
     12.452  0.2243E+01  0.5196E+02
     12.507  0.6409E+00  0.5200E+02
     12.561  0.2350E-01  0.5200E+02
     12.616  0.9684E-04  0.5200E+02
     12.671  0.4119E-07  0.5200E+02
     12.725  0.1731E-11  0.5200E+02
     12.780  0.0000E+00  0.5200E+02
     12.834  0.0000E+00  0.5200E+02
     12.889  0.0000E+00  0.5200E+02
     12.943  0.0000E+00  0.5200E+02
     12.998  0.0000E+00  0.5200E+02
     13.052  0.0000E+00  0.5200E+02
     13.107  0.0000E+00  0.5200E+02
     13.161  0.0000E+00  0.5200E+02
