       N       E                     dE             d eps       ncg     rms          rms(c)
DAV:   1     0.283778581026E+03    0.28378E+03   -0.14386E+04   528   0.187E+03
DAV:   2     0.313983205430E+01   -0.28064E+03   -0.27546E+03   520   0.365E+02
DAV:   3    -0.167459694944E+02   -0.19886E+02   -0.18778E+02   566   0.143E+02
DAV:   4    -0.172103094140E+02   -0.46434E+00   -0.46014E+00   632   0.254E+01
DAV:   5    -0.172176873990E+02   -0.73780E-02   -0.73764E-02   668   0.219E+00    0.143E+01
RMM:   6    -0.161231147711E+02    0.10946E+01   -0.44771E+01   533   0.994E+01    0.973E+00
RMM:   7    -0.141680643457E+02    0.19551E+01   -0.87565E+00   525   0.482E+01    0.634E-01
RMM:   8    -0.141627600714E+02    0.53043E-02   -0.15953E-01   531   0.596E+00    0.756E-01
RMM:   9    -0.141529997755E+02    0.97603E-02   -0.30592E-02   539   0.252E+00    0.608E-02
RMM:  10    -0.141532234548E+02   -0.22368E-03   -0.17393E-03   544   0.217E-01    0.589E-02
RMM:  11    -0.141531868085E+02    0.36646E-04   -0.22511E-04   526   0.215E-01    0.871E-03
RMM:  12    -0.141531857903E+02    0.10182E-05   -0.99257E-06   300   0.202E-02
   1 F= -.14153186E+02 E0= -.14153139E+02  d E =-.943997E-04
