 vasp.5.4.4.18Apr17-6-g9f103f2a35 (build Jan 01 2020 16:14:11) complex          
  
 executed on             LinuxIFC date 2022.03.02  19:16:08
 running on    4 total cores
 distrk:  each k-point on    4 cores,    1 groups
 distr:  one band on NCORES_PER_BAND=   2 cores,    2 groups


--------------------------------------------------------------------------------------------------------


 INCAR:
 POTCAR:    PAW_PBE Cu 22Jun2005                  
 POTCAR:    PAW_PBE Cu 22Jun2005                  
   VRHFIN =Cu: d10 p1                                                           
   LEXCH  = PE                                                                  
   EATOM  =  1390.9808 eV,  102.2342 Ry                                         
                                                                                
   TITEL  = PAW_PBE Cu 22Jun2005                                                
   LULTRA =        F    use ultrasoft PP ?                                      
   IUNSCR =        1    unscreen: 0-lin 1-nonlin 2-no                           
   RPACOR =    2.000    partial core radius                                     
   POMASS =   63.546; ZVAL   =   11.000    mass and valenz                      
   RCORE  =    2.300    outmost cutoff radius                                   
   RWIGS  =    2.200; RWIGS  =    1.164    wigner-seitz radius (au A)           
   ENMAX  =  295.446; ENMIN  =  221.585 eV                                      
   ICORE  =        3    local potential                                         
   LCOR   =        T    correct aug charges                                     
   LPAW   =        T    paw PP                                                  
   EAUG   =  586.980                                                            
   DEXC   =    0.000                                                            
   RMAX   =    2.344    core radius for proj-oper                               
   RAUG   =    1.300    factor for augmentation sphere                          
   RDEP   =    2.302    radius for radial grids                                 
   RDEPT  =    1.771    core radius for aug-charge                              
                                                                                
   Atomic configuration                                                         
    9 entries                                                                   
     n  l   j            E        occ.                                          
     1  0  0.50     -8850.2468   2.0000                                         
     2  0  0.50     -1062.3498   2.0000                                         
     2  1  1.50      -916.8226   6.0000                                         
     3  0  0.50      -114.6929   2.0000                                         
     3  1  1.50       -72.1325   6.0000                                         
     3  2  2.50        -5.0394  10.0000                                         
     4  0  0.50        -4.6097   1.0000                                         
     4  1  0.50        -4.0817   0.0000                                         
     4  3  2.50        -1.3606   0.0000                                         
   Description                                                                  
     l       E           TYP  RCUT    TYP  RCUT                                 
     2     -5.0393973     23  2.200                                             
     2     10.8846608     23  2.200                                             
     0     -4.6097109     23  2.200                                             
     0      8.2520465     23  2.200                                             
     1     -2.7211652     23  2.200                                             
     1     21.7055443     23  2.200                                             
     3      2.7211652     23  2.300                                             
  local pseudopotential read in
  partial core-charges read in
  partial kinetic energy density read in
  atomic valenz-charges read in
  non local Contribution for L=           2  read in
    real space projection operators read in
  non local Contribution for L=           2  read in
    real space projection operators read in
  non local Contribution for L=           0  read in
    real space projection operators read in
  non local Contribution for L=           0  read in
    real space projection operators read in
  non local Contribution for L=           1  read in
    real space projection operators read in
  non local Contribution for L=           1  read in
    real space projection operators read in
    PAW grid and wavefunctions read in
 
   number of l-projection  operators is LMAX  =           6
   number of lm-projection operators is LMMAX =          18
 
  PAW_PBE Cu 22Jun2005                  :
 energy of atom  1       EATOM=-1390.9808
 kinetic energy error for atom=    0.0422 (will be added to EATOM!!)
 
 
 POSCAR: Cu                                      
  positions in cartesian coordinates
  No initial velocities read in
 exchange correlation table for  LEXCH =        8
   RHO(1)=    0.500       N(1)  =     2000
   RHO(2)=  100.500       N(2)  =     4000
 


--------------------------------------------------------------------------------------------------------


 ion  position               nearest neighbor table
   1  0.000  0.000  0.000-   2 2.76   3 2.76   4 2.76   2 2.76   3 2.76   2 2.76   4 2.76   2 2.76
                             3 2.76   4 2.76   3 2.76   4 2.76
   2  0.000  0.500  0.500-   1 2.76   3 2.76   4 2.76   1 2.76   4 2.76   1 2.76   3 2.76   1 2.76
                             3 2.76   4 2.76   4 2.76   3 2.76
   3  0.500  0.000  0.500-   1 2.76   2 2.76   4 2.76   1 2.76   4 2.76   2 2.76   4 2.76   4 2.76
                             1 2.76   2 2.76   1 2.76   2 2.76
   4  0.500  0.500  0.000-   1 2.76   2 2.76   3 2.76   2 2.76   3 2.76   1 2.76   3 2.76   3 2.76
                             1 2.76   2 2.76   2 2.76   1 2.76
 
  LATTYP: Found a simple cubic cell.
 ALAT       =     3.9000000000
  
  Lattice vectors:
  
 A1 = (   3.9000000000,   0.0000000000,   0.0000000000)
 A2 = (   0.0000000000,   3.9000000000,   0.0000000000)
 A3 = (   0.0000000000,   0.0000000000,   3.9000000000)


Analysis of symmetry for initial positions (statically):
=====================================================================
 Subroutine PRICEL returns following result:
 
  LATTYP: Found a face centered cubic cell.
 ALAT       =     3.9000000000
  
  Lattice vectors:
  
 A1 = (   1.9500000000,   1.9500000000,   0.0000000000)
 A2 = (   1.9500000000,   0.0000000000,  -1.9500000000)
 A3 = (   0.0000000000,   1.9500000000,  -1.9500000000)
 
   4 primitive cells build up your supercell.
 

 Routine SETGRP: Setting up the symmetry group for a 
 simple cubic supercell.


 Subroutine GETGRP returns: Found 48 space group operations
 (whereof 48 operations were pure point group operations)
 out of a pool of 48 trial point group operations.


The static configuration has the point symmetry O_h .


Analysis of symmetry for dynamics (positions and initial velocities):
=====================================================================
 Subroutine PRICEL returns following result:
 
  LATTYP: Found a face centered cubic cell.
 ALAT       =     3.9000000000
  
  Lattice vectors:
  
 A1 = (   1.9500000000,   1.9500000000,   0.0000000000)
 A2 = (   1.9500000000,   0.0000000000,  -1.9500000000)
 A3 = (   0.0000000000,   1.9500000000,  -1.9500000000)
 
   4 primitive cells build up your supercell.
 

 Routine SETGRP: Setting up the symmetry group for a 
 simple cubic supercell.


 Subroutine GETGRP returns: Found 48 space group operations
 (whereof 48 operations were pure point group operations)
 out of a pool of 48 trial point group operations.


The dynamic configuration has the point symmetry O_h .


 Subroutine INISYM returns: Found 48 space group operations
 (whereof 48 operations are pure point group operations),
 and found     4 'primitive' translations

 
 
 KPOINTS: KPOINTS created by Atomic Simulation Env

Automatic generation of k-mesh.
Space group operators:
 irot       det(A)        alpha          n_x          n_y          n_z        tau_x        tau_y        tau_z
    1     1.000000     0.000000     1.000000     0.000000     0.000000     0.000000     0.000000     0.000000
    2    -1.000000     0.000000     1.000000     0.000000     0.000000     0.000000     0.000000     0.000000
    3     1.000000   120.000000    -0.577350    -0.577350    -0.577350     0.000000     0.000000     0.000000
    4    -1.000000   120.000000    -0.577350    -0.577350    -0.577350     0.000000     0.000000     0.000000
    5     1.000000   120.000000     0.577350     0.577350     0.577350     0.000000     0.000000     0.000000
    6    -1.000000   120.000000     0.577350     0.577350     0.577350     0.000000     0.000000     0.000000
    7     1.000000    90.000000     0.000000     0.000000    -1.000000     0.000000     0.000000     0.000000
    8    -1.000000    90.000000     0.000000     0.000000    -1.000000     0.000000     0.000000     0.000000
    9     1.000000   180.000000     0.000000     0.707107     0.707107     0.000000     0.000000     0.000000
   10    -1.000000   180.000000     0.000000     0.707107     0.707107     0.000000     0.000000     0.000000
   11     1.000000    90.000000     0.000000     1.000000     0.000000     0.000000     0.000000     0.000000
   12    -1.000000    90.000000     0.000000     1.000000     0.000000     0.000000     0.000000     0.000000
   13     1.000000   179.999999     0.000000     0.000000     1.000000     0.000000     0.000000     0.000000
   14    -1.000000   179.999999     0.000000     0.000000     1.000000     0.000000     0.000000     0.000000
   15     1.000000   120.000000    -0.577350     0.577350     0.577350     0.000000     0.000000     0.000000
   16    -1.000000   120.000000    -0.577350     0.577350     0.577350     0.000000     0.000000     0.000000
   17     1.000000   120.000000    -0.577350     0.577350    -0.577350     0.000000     0.000000     0.000000
   18    -1.000000   120.000000    -0.577350     0.577350    -0.577350     0.000000     0.000000     0.000000
   19     1.000000    90.000000     0.000000     0.000000     1.000000     0.000000     0.000000     0.000000
   20    -1.000000    90.000000     0.000000     0.000000     1.000000     0.000000     0.000000     0.000000
   21     1.000000    90.000000    -1.000000     0.000000     0.000000     0.000000     0.000000     0.000000
   22    -1.000000    90.000000    -1.000000     0.000000     0.000000     0.000000     0.000000     0.000000
   23     1.000000   180.000000     0.707107     0.000000     0.707107     0.000000     0.000000     0.000000
   24    -1.000000   180.000000     0.707107     0.000000     0.707107     0.000000     0.000000     0.000000
   25     1.000000   120.000000     0.577350    -0.577350     0.577350     0.000000     0.000000     0.000000
   26    -1.000000   120.000000     0.577350    -0.577350     0.577350     0.000000     0.000000     0.000000
   27     1.000000   120.000000    -0.577350    -0.577350     0.577350     0.000000     0.000000     0.000000
   28    -1.000000   120.000000    -0.577350    -0.577350     0.577350     0.000000     0.000000     0.000000
   29     1.000000   180.000000     1.000000     0.000000     0.000000     0.000000     0.000000     0.000000
   30    -1.000000   180.000000     1.000000     0.000000     0.000000     0.000000     0.000000     0.000000
   31     1.000000    90.000000     0.000000    -1.000000     0.000000     0.000000     0.000000     0.000000
   32    -1.000000    90.000000     0.000000    -1.000000     0.000000     0.000000     0.000000     0.000000
   33     1.000000   180.000000     0.707107     0.707107     0.000000     0.000000     0.000000     0.000000
   34    -1.000000   180.000000     0.707107     0.707107     0.000000     0.000000     0.000000     0.000000
   35     1.000000    90.000000     1.000000     0.000000     0.000000     0.000000     0.000000     0.000000
   36    -1.000000    90.000000     1.000000     0.000000     0.000000     0.000000     0.000000     0.000000
   37     1.000000   120.000000     0.577350    -0.577350    -0.577350     0.000000     0.000000     0.000000
   38    -1.000000   120.000000     0.577350    -0.577350    -0.577350     0.000000     0.000000     0.000000
   39     1.000000   180.000000     0.000000     1.000000     0.000000     0.000000     0.000000     0.000000
   40    -1.000000   180.000000     0.000000     1.000000     0.000000     0.000000     0.000000     0.000000
   41     1.000000   120.000000     0.577350     0.577350    -0.577350     0.000000     0.000000     0.000000
   42    -1.000000   120.000000     0.577350     0.577350    -0.577350     0.000000     0.000000     0.000000
   43     1.000000   180.000000     0.000000    -0.707107     0.707107     0.000000     0.000000     0.000000
   44    -1.000000   180.000000     0.000000    -0.707107     0.707107     0.000000     0.000000     0.000000
   45     1.000000   180.000000     0.707107    -0.707107     0.000000     0.000000     0.000000     0.000000
   46    -1.000000   180.000000     0.707107    -0.707107     0.000000     0.000000     0.000000     0.000000
   47     1.000000   180.000000     0.707107     0.000000    -0.707107     0.000000     0.000000     0.000000
   48    -1.000000   180.000000     0.707107     0.000000    -0.707107     0.000000     0.000000     0.000000
 
 Subroutine IBZKPT returns following result:
 ===========================================
 
 Found     10 irreducible k-points:
 
 Following reciprocal coordinates:
            Coordinates               Weight
  0.083333  0.083333  0.083333      8.000000
  0.250000  0.083333  0.083333     24.000000
  0.416667  0.083333  0.083333     24.000000
  0.250000  0.250000  0.083333     24.000000
  0.416667  0.250000  0.083333     48.000000
  0.416667  0.416667  0.083333     24.000000
  0.250000  0.250000  0.250000      8.000000
  0.416667  0.250000  0.250000     24.000000
  0.416667  0.416667  0.250000     24.000000
  0.416667  0.416667  0.416667      8.000000
 
 Following cartesian coordinates:
            Coordinates               Weight
  0.021368  0.021368  0.021368      8.000000
  0.064103  0.021368  0.021368     24.000000
  0.106838  0.021368  0.021368     24.000000
  0.064103  0.064103  0.021368     24.000000
  0.106838  0.064103  0.021368     48.000000
  0.106838  0.106838  0.021368     24.000000
  0.064103  0.064103  0.064103      8.000000
  0.106838  0.064103  0.064103     24.000000
  0.106838  0.106838  0.064103     24.000000
  0.106838  0.106838  0.106838      8.000000
 


--------------------------------------------------------------------------------------------------------




 Dimension of arrays:
   k-points           NKPTS =     10   k-points in BZ     NKDIM =     10   number of bands    NBANDS=     26
   number of dos      NEDOS =    301   number of ions     NIONS =      4
   non local maximal  LDIM  =      6   non local SUM 2l+1 LMDIM =     18
   total plane-waves  NPLWV =  13824
   max r-space proj   IRMAX =      1   max aug-charges    IRDMAX=   6949
   dimension x,y,z NGX =    24 NGY =   24 NGZ =   24
   dimension x,y,z NGXF=    48 NGYF=   48 NGZF=   48
   support grid    NGXF=    48 NGYF=   48 NGZF=   48
   ions per type =               4
   NGX,Y,Z   is equivalent  to a cutoff of  10.23, 10.23, 10.23 a.u.
   NGXF,Y,Z  is equivalent  to a cutoff of  20.46, 20.46, 20.46 a.u.

 SYSTEM =  unknown system                          
 POSCAR =  Cu                                      

 Startparameter for this run:
   NWRITE =      2    write-flag & timer
   PREC   = accura    normal or accurate (medium, high low for compatibility)
   ISTART =      0    job   : 0-new  1-cont  2-samecut
   ICHARG =      2    charge: 1-file 2-atom 10-const
   ISPIN  =      1    spin polarized calculation?
   LNONCOLLINEAR =      F non collinear calculations
   LSORBIT =      F    spin-orbit coupling
   INIWAV =      1    electr: 0-lowe 1-rand  2-diag
   LASPH  =      F    aspherical Exc in radial PAW
   METAGGA=      F    non-selfconsistent MetaGGA calc.

 Electronic Relaxation 1
   ENCUT  =  300.0 eV  22.05 Ry    4.70 a.u.   5.51  5.51  5.51*2*pi/ulx,y,z
   ENINI  =  300.0     initial cutoff
   ENAUG  =  587.0 eV  augmentation charge cutoff
   NELM   =    100;   NELMIN=  4; NELMDL= -5     # of ELM steps 
   EDIFF  = 0.1E-04   stopping-criterion for ELM
   LREAL  =      F    real-space projection
   NLSPLINE    = F    spline interpolate recip. space projectors
   LCOMPAT=      F    compatible to vasp.4.4
   GGA_COMPAT  = T    GGA compatible to vasp.4.4-vasp.4.6
   LMAXPAW     = -100 max onsite density
   LMAXMIX     =    2 max onsite mixed and CHGCAR
   VOSKOWN=      0    Vosko Wilk Nusair interpolation
   ROPT   =    0.00000
 Ionic relaxation
   EDIFFG = 0.1E-03   stopping-criterion for IOM
   NSW    =      0    number of steps for IOM
   NBLOCK =      1;   KBLOCK =      1    inner block; outer block 
   IBRION =     -1    ionic relax: 0-MD 1-quasi-New 2-CG
   NFREE  =      0    steps in history (QN), initial steepest desc. (CG)
   ISIF   =      2    stress and relaxation
   IWAVPR =     10    prediction:  0-non 1-charg 2-wave 3-comb
   ISYM   =      2    0-nonsym 1-usesym 2-fastsym
   LCORR  =      T    Harris-Foulkes like correction to forces

   POTIM  = 0.5000    time-step for ionic-motion
   TEIN   =    0.0    initial temperature
   TEBEG  =    0.0;   TEEND  =   0.0 temperature during run
   SMASS  =  -3.00    Nose mass-parameter (am)
   estimated Nose-frequenzy (Omega)   =  0.10E-29 period in steps =****** mass=  -0.348E-27a.u.
   SCALEE = 1.0000    scale energy and forces
   NPACO  =    256;   APACO  = 16.0  distance and # of slots for P.C.
   PSTRESS=    0.0 pullay stress

  Mass of Ions in am
   POMASS =  63.55
  Ionic Valenz
   ZVAL   =  11.00
  Atomic Wigner-Seitz radii
   RWIGS  =  -1.00
  virtual crystal weights 
   VCA    =   1.00
   NELECT =      44.0000    total number of electrons
   NUPDOWN=      -1.0000    fix difference up-down

 DOS related values:
   EMIN   =  10.00;   EMAX   =-10.00  energy-range for DOS
   EFERMI =   0.00
   ISMEAR =     0;   SIGMA  =   0.05  broadening in eV -4-tet -1-fermi 0-gaus

 Electronic relaxation 2 (details)
   IALGO  =     68    algorithm
   LDIAG  =      T    sub-space diagonalisation (order eigenvalues)
   LSUBROT=      F    optimize rotation matrix (better conditioning)
   TURBO    =      0    0=normal 1=particle mesh
   IRESTART =      0    0=no restart 2=restart with 2 vectors
   NREBOOT  =      0    no. of reboots
   NMIN     =      0    reboot dimension
   EREF     =   0.00    reference energy to select bands
   IMIX   =      4    mixing-type and parameters
     AMIX     =   0.40;   BMIX     =  1.00
     AMIX_MAG =   1.60;   BMIX_MAG =  1.00
     AMIN     =   0.10
     WC   =   100.;   INIMIX=   1;  MIXPRE=   1;  MAXMIX= -45

 Intra band minimization:
   WEIMIN = 0.0000     energy-eigenvalue tresh-hold
   EBREAK =  0.96E-07  absolut break condition
   DEPER  =   0.30     relativ break condition  

   TIME   =   0.40     timestep for ELM

  volume/ion in A,a.u.               =      14.83       100.08
  Fermi-wavevector in a.u.,A,eV,Ry     =   1.481930  2.800442 29.879992  2.196117
  Thomas-Fermi vector in A             =   2.595779
 
 Write flags
   LWAVE        =      F    write WAVECAR
   LDOWNSAMPLE  =      F    k-point downsampling of WAVECAR
   LCHARG       =      T    write CHGCAR
   LVTOT        =      F    write LOCPOT, total local potential
   LVHAR        =      F    write LOCPOT, Hartree potential only
   LELF         =      F    write electronic localiz. function (ELF)
   LORBIT       =      0    0 simple, 1 ext, 2 COOP (PROOUT), +10 PAW based schemes


 Dipole corrections
   LMONO  =      F    monopole corrections only (constant potential shift)
   LDIPOL =      F    correct potential (dipole corrections)
   IDIPOL =      0    1-x, 2-y, 3-z, 4-all directions 
   EPSILON=  1.0000000 bulk dielectric constant

 Exchange correlation treatment:
   GGA     =    PE    GGA type
   LEXCH   =     8    internal setting for exchange type
   VOSKOWN=      0    Vosko Wilk Nusair interpolation
   LHFCALC =     F    Hartree Fock is set to
   LHFONE  =     F    Hartree Fock one center treatment
   AEXX    =    0.0000 exact exchange contribution

 Linear response parameters
   LEPSILON=     F    determine dielectric tensor
   LRPA    =     F    only Hartree local field effects (RPA)
   LNABLA  =     F    use nabla operator in PAW spheres
   LVEL    =     F    velocity operator in full k-point grid
   LINTERFAST=   F  fast interpolation
   KINTER  =     0    interpolate to denser k-point grid
   CSHIFT  =0.1000    complex shift for real part using Kramers Kronig
   OMEGAMAX=  -1.0    maximum frequency
   DEG_THRESHOLD= 0.2000000E-02 threshold for treating states as degnerate
   RTIME   =   -0.100 relaxation time in fs
  (WPLASMAI=    0.000 imaginary part of plasma frequency in eV, 0.658/RTIME)
   DFIELD  = 0.0000000 0.0000000 0.0000000 field for delta impulse in time
 
 Orbital magnetization related:
   ORBITALMAG=     F  switch on orbital magnetization
   LCHIMAG   =     F  perturbation theory with respect to B field
   DQ        =  0.001000  dq finite difference perturbation B field
   LLRAUG    =     F  two centre corrections for induced B field



--------------------------------------------------------------------------------------------------------


 Static calculation
 charge density and potential will be updated during run
 non-spin polarized calculation
 RMM-DIIS sequential band-by-band and
  variant of blocked Davidson during initial phase
 perform sub-space diagonalisation
    before iterative eigenvector-optimisation
 modified Broyden-mixing scheme, WC =      100.0
 initial mixing is a Kerker type mixing with AMIX =  0.4000 and BMIX =      1.0000
 Hartree-type preconditioning will be used
 using additional bands            4
 reciprocal scheme for non local part
 use partial core corrections
 calculate Harris-corrections to forces 
   (improved forces if not selfconsistent)
 use gradient corrections 
 use of overlap-Matrix (Vanderbilt PP)
 Gauss-broadening in eV      SIGMA  =   0.05


--------------------------------------------------------------------------------------------------------


  energy-cutoff  :      300.00
  volume of cell :       59.32
      direct lattice vectors                 reciprocal lattice vectors
     3.900000000  0.000000000  0.000000000     0.256410256  0.000000000  0.000000000
     0.000000000  3.900000000  0.000000000     0.000000000  0.256410256  0.000000000
     0.000000000  0.000000000  3.900000000     0.000000000  0.000000000  0.256410256

  length of vectors
     3.900000000  3.900000000  3.900000000     0.256410256  0.256410256  0.256410256


 
 k-points in units of 2pi/SCALE and weight: KPOINTS created by Atomic Simulation Env
   0.02136752  0.02136752  0.02136752       0.037
   0.06410256  0.02136752  0.02136752       0.111
   0.10683761  0.02136752  0.02136752       0.111
   0.06410256  0.06410256  0.02136752       0.111
   0.10683761  0.06410256  0.02136752       0.222
   0.10683761  0.10683761  0.02136752       0.111
   0.06410256  0.06410256  0.06410256       0.037
   0.10683761  0.06410256  0.06410256       0.111
   0.10683761  0.10683761  0.06410256       0.111
   0.10683761  0.10683761  0.10683761       0.037
 
 k-points in reciprocal lattice and weights: KPOINTS created by Atomic Simulation Env
   0.08333333  0.08333333  0.08333333       0.037
   0.25000000  0.08333333  0.08333333       0.111
   0.41666667  0.08333333  0.08333333       0.111
   0.25000000  0.25000000  0.08333333       0.111
   0.41666667  0.25000000  0.08333333       0.222
   0.41666667  0.41666667  0.08333333       0.111
   0.25000000  0.25000000  0.25000000       0.037
   0.41666667  0.25000000  0.25000000       0.111
   0.41666667  0.41666667  0.25000000       0.111
   0.41666667  0.41666667  0.41666667       0.037
 
 position of ions in fractional coordinates (direct lattice) 
   0.00000000  0.00000000  0.00000000
   0.00000000  0.50000000  0.50000000
   0.50000000  0.00000000  0.50000000
   0.50000000  0.50000000  0.00000000
 
 position of ions in cartesian coordinates  (Angst):
   0.00000000  0.00000000  0.00000000
   0.00000000  1.95000000  1.95000000
   1.95000000  0.00000000  1.95000000
   1.95000000  1.95000000  0.00000000
 


--------------------------------------------------------------------------------------------------------


 k-point  1 :   0.0833 0.0833 0.0833  plane waves:     709
 k-point  2 :   0.2500 0.0833 0.0833  plane waves:     706
 k-point  3 :   0.4167 0.0833 0.0833  plane waves:     693
 k-point  4 :   0.2500 0.2500 0.0833  plane waves:     706
 k-point  5 :   0.4167 0.2500 0.0833  plane waves:     702
 k-point  6 :   0.4167 0.4167 0.0833  plane waves:     693
 k-point  7 :   0.2500 0.2500 0.2500  plane waves:     702
 k-point  8 :   0.4167 0.2500 0.2500  plane waves:     701
 k-point  9 :   0.4167 0.4167 0.2500  plane waves:     694
 k-point 10 :   0.4167 0.4167 0.4167  plane waves:     690

 maximum and minimum number of plane-waves per node :       358      341

 maximum number of plane-waves:       709
 maximum index in each direction: 
   IXMAX=    5   IYMAX=    5   IZMAX=    5
   IXMIN=   -5   IYMIN=   -5   IZMIN=   -5


 parallel 3D FFT for wavefunctions:
    minimum data exchange during FFTs selected (reduces bandwidth)
 parallel 3D FFT for charge:
    minimum data exchange during FFTs selected (reduces bandwidth)


 total amount of memory used by VASP MPI-rank0    34195. kBytes
=======================================================================

   base      :      30000. kBytes
   nonl-proj :        535. kBytes
   fftplans  :       1169. kBytes
   grid      :       1645. kBytes
   one-center:         31. kBytes
   wavefun   :        815. kBytes
 
     INWAV:  cpu time    0.0000: real time    0.0000
 Broyden mixing: mesh for mixing (old mesh)
   NGX = 11   NGY = 11   NGZ = 11
  (NGX  = 48   NGY  = 48   NGZ  = 48)
  gives a total of   1331 points

 initial charge density was supplied:
 charge density of overlapping atoms calculated
 number of electron      44.0000000 magnetization 
 keeping initial charge density in first step


--------------------------------------------------------------------------------------------------------


 Maximum index for augmentation-charges         1609 (set IRDMAX)


--------------------------------------------------------------------------------------------------------


 First call to EWALD:  gamma=   0.454
 Maximum number of real-space cells 3x 3x 3
 Maximum number of reciprocal cells 3x 3x 3

    FEWALD:  cpu time    0.0019: real time    0.0019


--------------------------------------- Iteration      1(   1)  ---------------------------------------


    POTLOK:  cpu time    0.0235: real time    0.0576
    SETDIJ:  cpu time    0.0040: real time    0.0040
     EDDAV:  cpu time    0.1481: real time    0.1485
       DOS:  cpu time    0.0004: real time    0.0004
    --------------------------------------------
      LOOP:  cpu time    0.1760: real time    0.2105

 eigenvalue-minimisations  :   528
 total energy-change (2. order) : 0.2837786E+03  (-0.1438624E+04)
 number of electron      44.0000000 magnetization 
 augmentation part       44.0000000 magnetization 

 Free energy of the ion-electron system (eV)
  ---------------------------------------------------
  alpha Z        PSCENC =       197.25970755
  Ewald energy   TEWEN  =     -4096.69009724
  -Hartree energ DENC   =     -1628.15189190
  -exchange      EXHF   =         0.00000000
  -V(xc)+E(xc)   XCENC  =       180.88566533
  PAW double counting   =      4912.82663951    -5336.19386850
  entropy T*S    EENTRO =        -0.00371724
  eigenvalues    EBANDS =       490.09182792
  atomic energy  EATOM  =      5563.75431560
  Solvation  Ediel_sol  =         0.00000000
  ---------------------------------------------------
  free energy    TOTEN  =       283.77858103 eV

  energy without entropy =      283.78229827  energy(sigma->0) =      283.78043965


--------------------------------------------------------------------------------------------------------




--------------------------------------- Iteration      1(   2)  ---------------------------------------


     EDDAV:  cpu time    0.1311: real time    0.1311
       DOS:  cpu time    0.0004: real time    0.0004
    --------------------------------------------
      LOOP:  cpu time    0.1316: real time    0.1316

 eigenvalue-minimisations  :   520
 total energy-change (2. order) :-0.2806387E+03  (-0.2754628E+03)
 number of electron      44.0000000 magnetization 
 augmentation part       44.0000000 magnetization 

 Free energy of the ion-electron system (eV)
  ---------------------------------------------------
  alpha Z        PSCENC =       197.25970755
  Ewald energy   TEWEN  =     -4096.69009724
  -Hartree energ DENC   =     -1628.15189190
  -exchange      EXHF   =         0.00000000
  -V(xc)+E(xc)   XCENC  =       180.88566533
  PAW double counting   =      4912.82663951    -5336.19386850
  entropy T*S    EENTRO =        -0.00854164
  eigenvalues    EBANDS =       209.45790335
  atomic energy  EATOM  =      5563.75431560
  Solvation  Ediel_sol  =         0.00000000
  ---------------------------------------------------
  free energy    TOTEN  =         3.13983205 eV

  energy without entropy =        3.14837370  energy(sigma->0) =        3.14410288


--------------------------------------------------------------------------------------------------------




--------------------------------------- Iteration      1(   3)  ---------------------------------------


     EDDAV:  cpu time    0.1397: real time    0.1398
       DOS:  cpu time    0.0005: real time    0.0005
    --------------------------------------------
      LOOP:  cpu time    0.1402: real time    0.1402

 eigenvalue-minimisations  :   566
 total energy-change (2. order) :-0.1988580E+02  (-0.1877753E+02)
 number of electron      44.0000000 magnetization 
 augmentation part       44.0000000 magnetization 

 Free energy of the ion-electron system (eV)
  ---------------------------------------------------
  alpha Z        PSCENC =       197.25970755
  Ewald energy   TEWEN  =     -4096.69009724
  -Hartree energ DENC   =     -1628.15189190
  -exchange      EXHF   =         0.00000000
  -V(xc)+E(xc)   XCENC  =       180.88566533
  PAW double counting   =      4912.82663951    -5336.19386850
  entropy T*S    EENTRO =        -0.00757860
  eigenvalues    EBANDS =       189.57113876
  atomic energy  EATOM  =      5563.75431560
  Solvation  Ediel_sol  =         0.00000000
  ---------------------------------------------------
  free energy    TOTEN  =       -16.74596949 eV

  energy without entropy =      -16.73839089  energy(sigma->0) =      -16.74218019


--------------------------------------------------------------------------------------------------------




--------------------------------------- Iteration      1(   4)  ---------------------------------------


     EDDAV:  cpu time    0.1465: real time    0.1465
       DOS:  cpu time    0.0005: real time    0.0005
    --------------------------------------------
      LOOP:  cpu time    0.1470: real time    0.1470

 eigenvalue-minimisations  :   632
 total energy-change (2. order) :-0.4643399E+00  (-0.4601418E+00)
 number of electron      44.0000000 magnetization 
 augmentation part       44.0000000 magnetization 

 Free energy of the ion-electron system (eV)
  ---------------------------------------------------
  alpha Z        PSCENC =       197.25970755
  Ewald energy   TEWEN  =     -4096.69009724
  -Hartree energ DENC   =     -1628.15189190
  -exchange      EXHF   =         0.00000000
  -V(xc)+E(xc)   XCENC  =       180.88566533
  PAW double counting   =      4912.82663951    -5336.19386850
  entropy T*S    EENTRO =        -0.00678883
  eigenvalues    EBANDS =       189.10600907
  atomic energy  EATOM  =      5563.75431560
  Solvation  Ediel_sol  =         0.00000000
  ---------------------------------------------------
  free energy    TOTEN  =       -17.21030941 eV

  energy without entropy =      -17.20352058  energy(sigma->0) =      -17.20691500


--------------------------------------------------------------------------------------------------------




--------------------------------------- Iteration      1(   5)  ---------------------------------------


     EDDAV:  cpu time    0.1439: real time    0.1439
       DOS:  cpu time    0.0004: real time    0.0004
    CHARGE:  cpu time    0.0154: real time    0.0154
    MIXING:  cpu time    0.0006: real time    0.0006
    --------------------------------------------
      LOOP:  cpu time    0.1603: real time    0.1603

 eigenvalue-minimisations  :   668
 total energy-change (2. order) :-0.7377985E-02  (-0.7376380E-02)
 number of electron      43.9999873 magnetization 
 augmentation part       26.1331656 magnetization 

 Broyden mixing:
  rms(total) = 0.14282E+01    rms(broyden)= 0.14279E+01
  rms(prec ) = 0.32659E+01
  weight for this iteration     100.00

 Free energy of the ion-electron system (eV)
  ---------------------------------------------------
  alpha Z        PSCENC =       197.25970755
  Ewald energy   TEWEN  =     -4096.69009724
  -Hartree energ DENC   =     -1628.15189190
  -exchange      EXHF   =         0.00000000
  -V(xc)+E(xc)   XCENC  =       180.88566533
  PAW double counting   =      4912.82663951    -5336.19386850
  entropy T*S    EENTRO =        -0.00676391
  eigenvalues    EBANDS =       189.09860616
  atomic energy  EATOM  =      5563.75431560
  Solvation  Ediel_sol  =         0.00000000
  ---------------------------------------------------
  free energy    TOTEN  =       -17.21768740 eV

  energy without entropy =      -17.21092349  energy(sigma->0) =      -17.21430545


--------------------------------------------------------------------------------------------------------




--------------------------------------- Iteration      1(   6)  ---------------------------------------


    POTLOK:  cpu time    0.0120: real time    0.0120
    SETDIJ:  cpu time    0.0024: real time    0.0024
    EDDIAG:  cpu time    0.0313: real time    0.0313
  RMM-DIIS:  cpu time    0.0928: real time    0.0928
    ORTHCH:  cpu time    0.0026: real time    0.0026
       DOS:  cpu time    0.0002: real time    0.0002
    CHARGE:  cpu time    0.0147: real time    0.0147
    MIXING:  cpu time    0.0006: real time    0.0006
    --------------------------------------------
      LOOP:  cpu time    0.1567: real time    0.1567

 eigenvalue-minimisations  :   533
 total energy-change (2. order) : 0.1094573E+01  (-0.4477126E+01)
 number of electron      43.9999865 magnetization 
 augmentation part       29.6973642 magnetization 

 Broyden mixing:
  rms(total) = 0.97335E+00    rms(broyden)= 0.97279E+00
  rms(prec ) = 0.20066E+01
  weight for this iteration     100.00

 eigenvalues of (default mixing * dielectric matrix)
  average eigenvalue GAMMA=   0.5942
  0.5942

 Free energy of the ion-electron system (eV)
  ---------------------------------------------------
  alpha Z        PSCENC =       197.25970755
  Ewald energy   TEWEN  =     -4096.69009724
  -Hartree energ DENC   =     -1513.96182975
  -exchange      EXHF   =         0.00000000
  -V(xc)+E(xc)   XCENC  =       175.37393924
  PAW double counting   =      4864.81520435    -5264.24409596
  entropy T*S    EENTRO =        -0.00000000
  eigenvalues    EBANDS =        57.56974144
  atomic energy  EATOM  =      5563.75431560
  Solvation  Ediel_sol  =         0.00000000
  ---------------------------------------------------
  free energy    TOTEN  =       -16.12311477 eV

  energy without entropy =      -16.12311477  energy(sigma->0) =      -16.12311477


--------------------------------------------------------------------------------------------------------




--------------------------------------- Iteration      1(   7)  ---------------------------------------


    POTLOK:  cpu time    0.0115: real time    0.0115
    SETDIJ:  cpu time    0.0024: real time    0.0024
    EDDIAG:  cpu time    0.0313: real time    0.0313
  RMM-DIIS:  cpu time    0.0910: real time    0.0910
    ORTHCH:  cpu time    0.0025: real time    0.0025
       DOS:  cpu time    0.0004: real time    0.0004
    CHARGE:  cpu time    0.0147: real time    0.0147
    MIXING:  cpu time    0.0006: real time    0.0006
    --------------------------------------------
      LOOP:  cpu time    0.1545: real time    0.1545

 eigenvalue-minimisations  :   525
 total energy-change (2. order) : 0.1955050E+01  (-0.8756496E+00)
 number of electron      43.9999869 magnetization 
 augmentation part       28.2390436 magnetization 

 Broyden mixing:
  rms(total) = 0.63442E-01    rms(broyden)= 0.62852E-01
  rms(prec ) = 0.13949E+00
  weight for this iteration     100.00

 eigenvalues of (default mixing * dielectric matrix)
  average eigenvalue GAMMA=   1.1491
  1.6908  0.6075

 Free energy of the ion-electron system (eV)
  ---------------------------------------------------
  alpha Z        PSCENC =       197.25970755
  Ewald energy   TEWEN  =     -4096.69009724
  -Hartree energ DENC   =     -1555.23324101
  -exchange      EXHF   =         0.00000000
  -V(xc)+E(xc)   XCENC  =       177.49112187
  PAW double counting   =      4946.16087763    -5364.87263153
  entropy T*S    EENTRO =        -0.00008684
  eigenvalues    EBANDS =       117.96196962
  atomic energy  EATOM  =      5563.75431560
  Solvation  Ediel_sol  =         0.00000000
  ---------------------------------------------------
  free energy    TOTEN  =       -14.16806435 eV

  energy without entropy =      -14.16797751  energy(sigma->0) =      -14.16802093


--------------------------------------------------------------------------------------------------------




--------------------------------------- Iteration      1(   8)  ---------------------------------------


    POTLOK:  cpu time    0.0116: real time    0.0116
    SETDIJ:  cpu time    0.0024: real time    0.0024
    EDDIAG:  cpu time    0.0313: real time    0.0313
  RMM-DIIS:  cpu time    0.0917: real time    0.0917
    ORTHCH:  cpu time    0.0025: real time    0.0025
       DOS:  cpu time    0.0004: real time    0.0004
    CHARGE:  cpu time    0.0147: real time    0.0147
    MIXING:  cpu time    0.0006: real time    0.0006
    --------------------------------------------
      LOOP:  cpu time    0.1552: real time    0.1552

 eigenvalue-minimisations  :   531
 total energy-change (2. order) : 0.5304274E-02  (-0.1595318E-01)
 number of electron      43.9999869 magnetization 
 augmentation part       28.1250529 magnetization 

 Broyden mixing:
  rms(total) = 0.75564E-01    rms(broyden)= 0.75508E-01
  rms(prec ) = 0.17963E+00
  weight for this iteration     100.00

 eigenvalues of (default mixing * dielectric matrix)
  average eigenvalue GAMMA=   1.3303
  0.6354  0.9339  2.4216

 Free energy of the ion-electron system (eV)
  ---------------------------------------------------
  alpha Z        PSCENC =       197.25970755
  Ewald energy   TEWEN  =     -4096.69009724
  -Hartree energ DENC   =     -1551.59139530
  -exchange      EXHF   =         0.00000000
  -V(xc)+E(xc)   XCENC  =       177.39698517
  PAW double counting   =      5004.66922835    -5430.56144661
  entropy T*S    EENTRO =        -0.00034311
  eigenvalues    EBANDS =       121.60028551
  atomic energy  EATOM  =      5563.75431560
  Solvation  Ediel_sol  =         0.00000000
  ---------------------------------------------------
  free energy    TOTEN  =       -14.16276007 eV

  energy without entropy =      -14.16241696  energy(sigma->0) =      -14.16258852


--------------------------------------------------------------------------------------------------------




--------------------------------------- Iteration      1(   9)  ---------------------------------------


    POTLOK:  cpu time    0.0115: real time    0.0115
    SETDIJ:  cpu time    0.0024: real time    0.0024
    EDDIAG:  cpu time    0.0313: real time    0.0313
  RMM-DIIS:  cpu time    0.0938: real time    0.0938
    ORTHCH:  cpu time    0.0026: real time    0.0026
       DOS:  cpu time    0.0004: real time    0.0004
    CHARGE:  cpu time    0.0147: real time    0.0147
    MIXING:  cpu time    0.0006: real time    0.0006
    --------------------------------------------
      LOOP:  cpu time    0.1573: real time    0.1573

 eigenvalue-minimisations  :   539
 total energy-change (2. order) : 0.9760296E-02  (-0.3059242E-02)
 number of electron      43.9999869 magnetization 
 augmentation part       28.2359788 magnetization 

 Broyden mixing:
  rms(total) = 0.60791E-02    rms(broyden)= 0.60530E-02
  rms(prec ) = 0.12291E-01
  weight for this iteration     100.00

 eigenvalues of (default mixing * dielectric matrix)
  average eigenvalue GAMMA=   1.6058
  3.0178  0.6366  0.9161  1.8528

 Free energy of the ion-electron system (eV)
  ---------------------------------------------------
  alpha Z        PSCENC =       197.25970755
  Ewald energy   TEWEN  =     -4096.69009724
  -Hartree energ DENC   =     -1545.01275829
  -exchange      EXHF   =         0.00000000
  -V(xc)+E(xc)   XCENC  =       177.11432451
  PAW double counting   =      5030.63629611    -5458.09852595
  entropy T*S    EENTRO =        -0.00008582
  eigenvalues    EBANDS =       116.88382375
  atomic energy  EATOM  =      5563.75431560
  Solvation  Ediel_sol  =         0.00000000
  ---------------------------------------------------
  free energy    TOTEN  =       -14.15299978 eV

  energy without entropy =      -14.15291395  energy(sigma->0) =      -14.15295686


--------------------------------------------------------------------------------------------------------




--------------------------------------- Iteration      1(  10)  ---------------------------------------


    POTLOK:  cpu time    0.0115: real time    0.0115
    SETDIJ:  cpu time    0.0024: real time    0.0024
    EDDIAG:  cpu time    0.0314: real time    0.0314
  RMM-DIIS:  cpu time    0.0953: real time    0.0953
    ORTHCH:  cpu time    0.0025: real time    0.0025
       DOS:  cpu time    0.0004: real time    0.0004
    CHARGE:  cpu time    0.0145: real time    0.0145
    MIXING:  cpu time    0.0006: real time    0.0006
    --------------------------------------------
      LOOP:  cpu time    0.1587: real time    0.1587

 eigenvalue-minimisations  :   544
 total energy-change (2. order) :-0.2236794E-03  (-0.1739258E-03)
 number of electron      43.9999869 magnetization 
 augmentation part       28.2382009 magnetization 

 Broyden mixing:
  rms(total) = 0.58904E-02    rms(broyden)= 0.58896E-02
  rms(prec ) = 0.13150E-01
  weight for this iteration     100.00

 eigenvalues of (default mixing * dielectric matrix)
  average eigenvalue GAMMA=   1.6488
  3.1570  2.2878  0.6344  1.0177  1.1470

 Free energy of the ion-electron system (eV)
  ---------------------------------------------------
  alpha Z        PSCENC =       197.25970755
  Ewald energy   TEWEN  =     -4096.69009724
  -Hartree energ DENC   =     -1545.17639282
  -exchange      EXHF   =         0.00000000
  -V(xc)+E(xc)   XCENC  =       177.12359341
  PAW double counting   =      5032.24045358    -5459.53434335
  entropy T*S    EENTRO =        -0.00008608
  eigenvalues    EBANDS =       116.86962589
  atomic energy  EATOM  =      5563.75431560
  Solvation  Ediel_sol  =         0.00000000
  ---------------------------------------------------
  free energy    TOTEN  =       -14.15322345 eV

  energy without entropy =      -14.15313738  energy(sigma->0) =      -14.15318042


--------------------------------------------------------------------------------------------------------




--------------------------------------- Iteration      1(  11)  ---------------------------------------


    POTLOK:  cpu time    0.0115: real time    0.0115
    SETDIJ:  cpu time    0.0024: real time    0.0024
    EDDIAG:  cpu time    0.0313: real time    0.0313
  RMM-DIIS:  cpu time    0.0923: real time    0.0923
    ORTHCH:  cpu time    0.0026: real time    0.0026
       DOS:  cpu time    0.0004: real time    0.0004
    CHARGE:  cpu time    0.0147: real time    0.0147
    MIXING:  cpu time    0.0006: real time    0.0006
    --------------------------------------------
      LOOP:  cpu time    0.1558: real time    0.1558

 eigenvalue-minimisations  :   526
 total energy-change (2. order) : 0.3664634E-04  (-0.2251080E-04)
 number of electron      43.9999869 magnetization 
 augmentation part       28.2329199 magnetization 

 Broyden mixing:
  rms(total) = 0.87077E-03    rms(broyden)= 0.86928E-03
  rms(prec ) = 0.20318E-02
  weight for this iteration     100.00

 eigenvalues of (default mixing * dielectric matrix)
  average eigenvalue GAMMA=   1.4920
  2.7446  2.3539  0.6346  0.9892  0.9288  1.3007

 Free energy of the ion-electron system (eV)
  ---------------------------------------------------
  alpha Z        PSCENC =       197.25970755
  Ewald energy   TEWEN  =     -4096.69009724
  -Hartree energ DENC   =     -1545.66625217
  -exchange      EXHF   =         0.00000000
  -V(xc)+E(xc)   XCENC  =       177.14620929
  PAW double counting   =      5031.76942287    -5458.84061130
  entropy T*S    EENTRO =        -0.00009350
  eigenvalues    EBANDS =       117.11421210
  atomic energy  EATOM  =      5563.75431560
  Solvation  Ediel_sol  =         0.00000000
  ---------------------------------------------------
  free energy    TOTEN  =       -14.15318681 eV

  energy without entropy =      -14.15309330  energy(sigma->0) =      -14.15314006


--------------------------------------------------------------------------------------------------------




--------------------------------------- Iteration      1(  12)  ---------------------------------------


    POTLOK:  cpu time    0.0115: real time    0.0115
    SETDIJ:  cpu time    0.0024: real time    0.0024
    EDDIAG:  cpu time    0.0312: real time    0.0312
  RMM-DIIS:  cpu time    0.0578: real time    0.0578
    ORTHCH:  cpu time    0.0025: real time    0.0025
       DOS:  cpu time    0.0003: real time    0.0003
    --------------------------------------------
      LOOP:  cpu time    0.1057: real time    0.1057

 eigenvalue-minimisations  :   300
 total energy-change (2. order) : 0.1018193E-05  (-0.9925685E-06)
 number of electron      43.9999869 magnetization 
 augmentation part       28.2329199 magnetization 

 Free energy of the ion-electron system (eV)
  ---------------------------------------------------
  alpha Z        PSCENC =       197.25970755
  Ewald energy   TEWEN  =     -4096.69009724
  -Hartree energ DENC   =     -1545.70975866
  -exchange      EXHF   =         0.00000000
  -V(xc)+E(xc)   XCENC  =       177.14806621
  PAW double counting   =      5031.41491929    -5458.47396046
  entropy T*S    EENTRO =        -0.00009440
  eigenvalues    EBANDS =       117.14371631
  atomic energy  EATOM  =      5563.75431560
  Solvation  Ediel_sol  =         0.00000000
  ---------------------------------------------------
  free energy    TOTEN  =       -14.15318579 eV

  energy without entropy =      -14.15309139  energy(sigma->0) =      -14.15313859


--------------------------------------------------------------------------------------------------------




 average (electrostatic) potential at core
  the test charge radii are     0.9430
  (the norm of the test charge is              1.0000)
       1 -65.7146       2 -65.7146       3 -65.7146       4 -65.7146
 
 
 
 E-fermi :   4.9731     XC(G=0): -11.4540     alpha+bet :-10.6909


 k-point     1 :       0.0833    0.0833    0.0833
  band No.  band energies     occupation 
      1      -2.4583      2.00000
      2       1.4316      2.00000
      3       1.4316      2.00000
      4       1.4316      2.00000
      5       1.7530      2.00000
      6       1.7530      2.00000
      7       1.7530      2.00000
      8       2.6428      2.00000
      9       2.7106      2.00000
     10       2.7106      2.00000
     11       3.2470      2.00000
     12       3.2470      2.00000
     13       3.5636      2.00000
     14       3.5636      2.00000
     15       3.5636      2.00000
     16       3.5914      2.00000
     17       3.5914      2.00000
     18       3.5914      2.00000
     19       3.7303      2.00000
     20       3.7303      2.00000
     21       3.7303      2.00000
     22       6.5128      0.00000
     23       6.5128      0.00000
     24       6.5128      0.00000
     25      11.5065      0.00000
     26      11.5065      0.00000

 k-point     2 :       0.2500    0.0833    0.0833
  band No.  band energies     occupation 
      1      -1.8954      2.00000
      2       1.3153      2.00000
      3       1.6441      2.00000
      4       1.6441      2.00000
      5       1.8710      2.00000
      6       1.8848      2.00000
      7       1.8848      2.00000
      8       2.5290      2.00000
      9       2.8019      2.00000
     10       2.8053      2.00000
     11       3.0762      2.00000
     12       3.0762      2.00000
     13       3.1491      2.00000
     14       3.2892      2.00000
     15       3.3096      2.00000
     16       3.4526      2.00000
     17       3.4613      2.00000
     18       3.4613      2.00000
     19       3.6558      2.00000
     20       3.7166      2.00000
     21       3.7166      2.00000
     22       4.5180      2.00000
     23       7.4465      0.00000
     24       7.4465      0.00000
     25      11.8607      0.00000
     26      11.8607      0.00000

 k-point     3 :       0.4167    0.0833    0.0833
  band No.  band energies     occupation 
      1      -0.8248      2.00000
      2       0.5134      2.00000
      3       1.9235      2.00000
      4       1.9235      2.00000
      5       2.0780      2.00000
      6       2.1370      2.00000
      7       2.1370      2.00000
      8       2.3190      2.00000
      9       2.5507      2.00000
     10       2.5507      2.00000
     11       2.8676      2.00000
     12       2.8807      2.00000
     13       2.9859      2.00000
     14       3.1508      2.00000
     15       3.2220      2.00000
     16       3.2726      2.00000
     17       3.2726      2.00000
     18       3.4178      2.00000
     19       3.5044      2.00000
     20       3.5432      2.00000
     21       3.7125      2.00000
     22       3.7125      2.00000
     23       8.8541      0.00000
     24       8.8541      0.00000
     25      10.5977      0.00000
     26      10.5977      0.00000

 k-point     4 :       0.2500    0.2500    0.0833
  band No.  band energies     occupation 
      1      -1.3524      2.00000
      2       1.5749      2.00000
      3       1.5749      2.00000
      4       1.7928      2.00000
      5       1.9854      2.00000
      6       1.9879      2.00000
      7       1.9879      2.00000
      8       2.4910      2.00000
      9       2.8015      2.00000
     10       2.8015      2.00000
     11       2.8031      2.00000
     12       2.8392      2.00000
     13       2.8740      2.00000
     14       3.1505      2.00000
     15       3.3236      2.00000
     16       3.3645      2.00000
     17       3.3645      2.00000
     18       3.3702      2.00000
     19       3.6261      2.00000
     20       3.6261      2.00000
     21       3.6389      2.00000
     22       5.3129      0.00000
     23       5.3129      0.00000
     24       8.2063      0.00000
     25      10.1016      0.00000
     26      12.2902      0.00000

 k-point     5 :       0.4167    0.2500    0.0833
  band No.  band energies     occupation 
      1      -0.3342      2.00000
      2       0.8902      2.00000
      3       1.9209      2.00000
      4       1.9912      2.00000
      5       2.1212      2.00000
      6       2.1648      2.00000
      7       2.1841      2.00000
      8       2.3542      2.00000
      9       2.4210      2.00000
     10       2.5571      2.00000
     11       2.6386      2.00000
     12       2.7529      2.00000
     13       2.9571      2.00000
     14       3.1496      2.00000
     15       3.1887      2.00000
     16       3.2017      2.00000
     17       3.2243      2.00000
     18       3.4507      2.00000
     19       3.5793      2.00000
     20       3.5804      2.00000
     21       3.5830      2.00000
     22       4.0255      2.00000
     23       6.4469      0.00000
     24       7.9757      0.00000
     25       9.5565      0.00000
     26      11.2309      0.00000

 k-point     6 :       0.4167    0.4167    0.0833
  band No.  band energies     occupation 
      1       0.5333      2.00000
      2       1.4370      2.00000
      3       1.4370      2.00000
      4       1.8127      2.00000
      5       2.3303      2.00000
      6       2.3394      2.00000
      7       2.3394      2.00000
      8       2.3788      2.00000
      9       2.4715      2.00000
     10       2.4715      2.00000
     11       2.5060      2.00000
     12       2.6616      2.00000
     13       2.9469      2.00000
     14       3.0593      2.00000
     15       3.0640      2.00000
     16       3.0640      2.00000
     17       3.2037      2.00000
     18       3.3817      2.00000
     19       3.3817      2.00000
     20       3.4382      2.00000
     21       3.9714      2.00000
     22       4.7693      2.00000
     23       4.7693      2.00000
     24       6.0164      0.00000
     25      10.7522      0.00000
     26      12.4177      0.00000

 k-point     7 :       0.2500    0.2500    0.2500
  band No.  band energies     occupation 
      1      -0.8436      2.00000
      2       1.6683      2.00000
      3       1.6683      2.00000
      4       1.6683      2.00000
      5       2.1236      2.00000
      6       2.1236      2.00000
      7       2.1236      2.00000
      8       2.5209      2.00000
      9       2.7159      2.00000
     10       2.7159      2.00000
     11       2.7159      2.00000
     12       2.7911      2.00000
     13       2.7911      2.00000
     14       3.1358      2.00000
     15       3.1358      2.00000
     16       3.1358      2.00000
     17       3.3210      2.00000
     18       3.3210      2.00000
     19       3.6870      2.00000
     20       3.6870      2.00000
     21       3.6870      2.00000
     22       5.8625      0.00000
     23       5.8625      0.00000
     24       5.8625      0.00000
     25      10.7336      0.00000
     26      10.7336      0.00000

 k-point     8 :       0.4167    0.2500    0.2500
  band No.  band energies     occupation 
      1       0.0773      2.00000
      2       1.0917      2.00000
      3       1.7364      2.00000
      4       1.7364      2.00000
      5       2.2870      2.00000
      6       2.2870      2.00000
      7       2.3484      2.00000
      8       2.4948      2.00000
      9       2.6318      2.00000
     10       2.6596      2.00000
     11       2.6596      2.00000
     12       2.7309      2.00000
     13       2.8192      2.00000
     14       2.9436      2.00000
     15       3.0236      2.00000
     16       3.0236      2.00000
     17       3.4606      2.00000
     18       3.5087      2.00000
     19       3.6342      2.00000
     20       3.6342      2.00000
     21       3.6450      2.00000
     22       4.2092      2.00000
     23       6.7675      0.00000
     24       6.7675      0.00000
     25       8.7880      0.00000
     26       8.7880      0.00000

 k-point     9 :       0.4167    0.4167    0.2500
  band No.  band energies     occupation 
      1       0.7295      2.00000
      2       1.3213      2.00000
      3       1.3213      2.00000
      4       1.5212      2.00000
      5       2.4592      2.00000
      6       2.5281      2.00000
      7       2.5281      2.00000
      8       2.6819      2.00000
      9       2.7599      2.00000
     10       2.7606      2.00000
     11       2.7606      2.00000
     12       2.7665      2.00000
     13       2.8595      2.00000
     14       2.8633      2.00000
     15       2.8633      2.00000
     16       2.8669      2.00000
     17       3.4368      2.00000
     18       3.5870      2.00000
     19       3.5870      2.00000
     20       3.5906      2.00000
     21       3.8607      2.00000
     22       4.8628      1.99818
     23       4.8628      1.99818
     24       6.0647      0.00000
     25       8.4467      0.00000
     26       9.8507      0.00000

 k-point    10 :       0.4167    0.4167    0.4167
  band No.  band energies     occupation 
      1       0.9793      2.00000
      2       1.2328      2.00000
      3       1.2328      2.00000
      4       1.2328      2.00000
      5       2.6069      2.00000
      6       2.6069      2.00000
      7       2.6069      2.00000
      8       2.6839      2.00000
      9       2.6839      2.00000
     10       2.7220      2.00000
     11       2.7220      2.00000
     12       2.7220      2.00000
     13       3.2677      2.00000
     14       3.2677      2.00000
     15       3.2677      2.00000
     16       3.6060      2.00000
     17       3.6060      2.00000
     18       3.6627      2.00000
     19       3.6627      2.00000
     20       3.6627      2.00000
     21       3.6864      2.00000
     22       5.0759      0.00365
     23       5.0759      0.00365
     24       5.0759      0.00365
     25       8.1483      0.00000
     26       8.1483      0.00000


--------------------------------------------------------------------------------------------------------


 soft charge-density along one line, spin component           1
         0         1         2         3         4         5         6         7         8         9
 total charge-density along one line
 
 pseudopotential strength for first ion, spin component:           1
 -4.361  -0.000   0.000  -0.000  -0.000  -3.625   0.000  -0.000
 -0.000  -4.361   0.000  -0.000   0.000   0.000  -3.625  -0.000
  0.000   0.000  -4.348  -0.000   0.000  -0.000  -0.000  -3.635
 -0.000  -0.000  -0.000  -4.361  -0.000   0.000   0.000   0.000
 -0.000   0.000   0.000  -0.000  -4.348   0.000  -0.000  -0.000
 -3.625   0.000  -0.000   0.000   0.000   9.528  -0.000   0.000
  0.000  -3.625  -0.000   0.000  -0.000  -0.000   9.528  -0.000
 -0.000  -0.000  -3.635   0.000  -0.000   0.000  -0.000   9.535
  0.000   0.000   0.000  -3.625   0.000  -0.000  -0.000  -0.000
  0.000  -0.000  -0.000   0.000  -3.635  -0.000   0.000   0.000
  0.000   0.000   0.000   0.000   0.000   0.000   0.000  -0.000
  0.000   0.000   0.000   0.000   0.000   0.000   0.000  -0.000
  0.000  -0.000   0.000   0.000   0.000   0.000   0.000   0.000
  0.000  -0.000  -0.000   0.000  -0.000   0.000   0.000   0.000
 -0.000   0.000  -0.000  -0.000   0.000  -0.000   0.000   0.000
  0.000  -0.000   0.000  -0.000   0.000   0.000  -0.000   0.000
 -0.000  -0.000  -0.000   0.000   0.000   0.000   0.000   0.000
 -0.000  -0.000  -0.000  -0.000   0.000  -0.000   0.000   0.000
 total augmentation occupancy for first ion, spin component:           1
  1.906  -0.000  -0.000   0.000   0.000  -0.026  -0.000   0.000  -0.000  -0.000   0.000  -0.000  -0.000   0.000   0.000  -0.000
 -0.000   1.906  -0.000   0.000   0.000   0.000  -0.026   0.000   0.000  -0.000   0.000  -0.000   0.000  -0.000  -0.000  -0.000
 -0.000  -0.000   1.927  -0.000   0.000   0.000   0.000  -0.039   0.000  -0.000   0.000  -0.000  -0.000  -0.000  -0.000   0.000
  0.000   0.000  -0.000   1.906   0.000   0.000   0.000   0.000  -0.026  -0.000  -0.000  -0.000   0.000  -0.000   0.000  -0.000
 -0.000   0.000  -0.000   0.000   1.927   0.000   0.000   0.000  -0.000  -0.039  -0.000   0.000   0.000  -0.000  -0.000   0.000
 -0.026   0.000   0.000  -0.000   0.000   0.010  -0.000   0.000   0.000  -0.000  -0.000   0.000   0.000   0.000  -0.000  -0.000
 -0.000  -0.026  -0.000  -0.000   0.000  -0.000   0.010  -0.000  -0.000   0.000  -0.000  -0.000  -0.000  -0.000   0.000   0.000
 -0.000   0.000  -0.039   0.000  -0.000   0.000  -0.000   0.009  -0.000   0.000   0.000  -0.000   0.000   0.000   0.000   0.000
 -0.000  -0.000  -0.000  -0.026  -0.000   0.000  -0.000  -0.000   0.010  -0.000   0.000  -0.000   0.000   0.000  -0.000  -0.000
 -0.000  -0.000   0.000  -0.000  -0.039   0.000   0.000   0.000  -0.000   0.009  -0.000   0.000   0.000  -0.000   0.000   0.000
  0.000  -0.000  -0.000  -0.000   0.000  -0.000  -0.000   0.000   0.000   0.000   1.466  -0.118   0.000   0.000  -0.000  -0.000
  0.000  -0.000   0.000  -0.000  -0.000   0.000  -0.000  -0.000   0.000  -0.000  -0.118   0.013  -0.000   0.000  -0.000   0.000
 -0.000   0.000  -0.000   0.000  -0.000   0.000  -0.000  -0.000   0.000   0.000   0.000  -0.000   0.153  -0.000   0.000  -0.010
  0.000  -0.000  -0.000  -0.000   0.000   0.000  -0.000  -0.000   0.000   0.000   0.000   0.000   0.000   0.153  -0.000   0.000
  0.000  -0.000   0.000   0.000  -0.000  -0.000   0.000   0.000  -0.000   0.000  -0.000  -0.000   0.000  -0.000   0.153   0.000
 -0.000  -0.000  -0.000  -0.000  -0.000  -0.000   0.000  -0.000  -0.000   0.000  -0.000   0.000  -0.010   0.000   0.000   0.001
  0.000  -0.000  -0.000   0.000   0.000  -0.000   0.000  -0.000  -0.000   0.000   0.000   0.000  -0.000  -0.010  -0.000  -0.000
 -0.000  -0.000   0.000   0.000   0.000   0.000   0.000  -0.000   0.000  -0.000  -0.000  -0.000   0.000   0.000  -0.010  -0.000


------------------------ aborting loop because EDIFF is reached ----------------------------------------


    CHARGE:  cpu time    0.0148: real time    0.0148
    FORLOC:  cpu time    0.0010: real time    0.0010
    FORNL :  cpu time    0.0298: real time    0.0298
    STRESS:  cpu time    0.0505: real time    0.0505
    FORCOR:  cpu time    0.0120: real time    0.0120
    FORHAR:  cpu time    0.0029: real time    0.0029
    MIXING:  cpu time    0.0006: real time    0.0006
    OFIELD:  cpu time    0.0000: real time    0.0000

  FORCE on cell =-STRESS in cart. coord.  units (eV):
  Direction    XX          YY          ZZ          XY          YZ          ZX
  --------------------------------------------------------------------------------------
  Alpha Z   197.25971   197.25971   197.25971
  Ewald   -1365.56397 -1365.56397 -1365.56397    -0.00000    -0.00000    -0.00000
  Hartree   515.24562   515.24562   515.24562    -0.00000    -0.00000    -0.00000
  E(xc)    -256.04355  -256.04355  -256.04355    -0.00000     0.00000     0.00000
  Local     266.87881   266.87881   266.87881     0.00000    -0.00000    -0.00000
  n-local   -92.73578   -99.56688  -101.53018     0.13067     2.71755     1.53090
  augment   378.09326   378.09326   378.09326    -0.00000    -0.00000     0.00000
  Kinetic   361.61717   354.63936   349.04482    -3.51866     0.16383    -0.85159
  Fock        0.00000     0.00000     0.00000     0.00000     0.00000     0.00000
  -------------------------------------------------------------------------------------
  Total      -6.97395    -6.97395    -6.97395     0.00000     0.00000    -0.00000
  in kB    -188.36303  -188.36303  -188.36303     0.00000     0.00000    -0.00000
  external pressure =     -188.36 kB  Pullay stress =        0.00 kB


 VOLUME and BASIS-vectors are now :
 -----------------------------------------------------------------------------
  energy-cutoff  :      300.00
  volume of cell :       59.32
      direct lattice vectors                 reciprocal lattice vectors
     3.900000000  0.000000000  0.000000000     0.256410256  0.000000000  0.000000000
     0.000000000  3.900000000  0.000000000     0.000000000  0.256410256  0.000000000
     0.000000000  0.000000000  3.900000000     0.000000000  0.000000000  0.256410256

  length of vectors
     3.900000000  3.900000000  3.900000000     0.256410256  0.256410256  0.256410256


 FORCES acting on ions
    electron-ion (+dipol)            ewald-force                    non-local-force                 convergence-correction
 -----------------------------------------------------------------------------------------------
   -.222E-13 -.565E-13 -.654E-13   -.637E-14 -.199E-14 -.907E-14   0.397E-22 -.331E-22 -.529E-22   0.645E-13 -.196E-13 -.667E-13
   -.221E-13 0.738E-12 0.718E-12   -.629E-14 0.331E-14 0.440E-14   0.199E-22 -.112E-22 -.596E-22   0.805E-13 -.135E-13 0.332E-13
   0.753E-12 -.605E-13 -.494E-11   0.564E-14 -.240E-14 0.419E-14   -.596E-22 0.662E-23 0.529E-22   0.533E-13 -.603E-14 0.204E-13
   0.745E-12 -.338E-11 -.485E-11   0.572E-14 0.290E-14 -.168E-14   0.662E-22 0.000E+00 -.397E-22   0.552E-13 0.101E-13 -.716E-13
 -----------------------------------------------------------------------------------------------
   0.145E-11 -.276E-11 -.915E-11   -.130E-14 0.183E-14 -.216E-14   0.662E-22 -.376E-22 -.993E-22   0.253E-12 -.291E-13 -.848E-13
 
 
 POSITION                                       TOTAL-FORCE (eV/Angst)
 -----------------------------------------------------------------------------------
      0.00000      0.00000      0.00000         0.000000      0.000000     -0.000000
      0.00000      1.95000      1.95000        -0.000000      0.000000     -0.000000
      1.95000      0.00000      1.95000        -0.000000      0.000000      0.000000
      1.95000      1.95000      0.00000         0.000000     -0.000000      0.000000
 -----------------------------------------------------------------------------------
    total drift:                                0.000000     -0.000000     -0.000000


--------------------------------------------------------------------------------------------------------



  FREE ENERGIE OF THE ION-ELECTRON SYSTEM (eV)
  ---------------------------------------------------
  free  energy   TOTEN  =       -14.15318579 eV

  energy  without entropy=      -14.15309139  energy(sigma->0) =      -14.15313859
 


--------------------------------------------------------------------------------------------------------


    POTLOK:  cpu time    0.0138: real time    0.0138


--------------------------------------------------------------------------------------------------------


     LOOP+:  cpu time    2.0747: real time    2.2205
    4ORBIT:  cpu time    0.0000: real time    0.0000

 total amount of memory used by VASP MPI-rank0    34195. kBytes
=======================================================================

   base      :      30000. kBytes
   nonl-proj :        535. kBytes
   fftplans  :       1169. kBytes
   grid      :       1645. kBytes
   one-center:         31. kBytes
   wavefun   :        815. kBytes
 
  
  
 General timing and accounting informations for this job:
 ========================================================
  
                  Total CPU time used (sec):        2.829
                            User time (sec):        2.583
                          System time (sec):        0.246
                         Elapsed time (sec):        3.701
  
                   Maximum memory used (kb):      165572.
                   Average memory used (kb):           0.
  
                          Minor page faults:        29572
                          Major page faults:            0
                 Voluntary context switches:         1091
